<?xml version="1.0" encoding="UTF-8"?>

<!-- generated on 2023-12-02 16:00:14 by Eclipse SUMO GUI Version 1.15.0
<configuration xmlns:xsi="http://www.w3.org/2001/XMLSchema-instance" xsi:noNamespaceSchemaLocation="http://sumo.dlr.de/xsd/sumoConfiguration.xsd">

    <input>
        <net-file value="C:\Users\30582\Desktop\LYL\信号灯调度\test_救护车2\std_crossroad.net.xml"/>
        <route-files value="C:\Users\30582\Desktop\LYL\信号灯调度\test_救护车2\Routes.rou.xml,C:\Users\30582\Desktop\LYL\信号灯调度\test_救护车2\std_crossroad.ped.xml"/>
        <additional-files value="C:\Users\30582\Desktop\LYL\信号灯调度\test_救护车2\std_crossroad.det.xml,C:\Users\30582\Desktop\LYL\信号灯调度\test_救护车2\emissionOut.xml"/>
    </input>

    <output>
        <write-license value="true"/>
        <emission-output value="C:\Users\30582\Desktop\LYL\信号灯调度\test_救护车2\true"/>
        <fcd-output value="C:\Users\30582\Desktop\LYL\信号灯调度\test_救护车2\false"/>
        <tripinfo-output value="C:\Users\30582\Desktop\LYL\信号灯调度\test_救护车2\tripinfos.xml"/>
    </output>

    <report>
        <verbose value="true"/>
        <no-step-log value="true"/>
    </report>

    <gui_only>
        <gui-settings-file value="C:\Users\30582\Desktop\LYL\信号灯调度\test_救护车2\viewsettings.xml"/>
    </gui_only>

</configuration>
-->

<tripinfos xmlns:xsi="http://www.w3.org/2001/XMLSchema-instance" xsi:noNamespaceSchemaLocation="http://sumo.dlr.de/xsd/tripinfo_file.xsd">
    <tripinfo id="0.0" depart="0.00" departLane="WC_1" departPos="5.10" departSpeed="0.00" departDelay="0.00" arrival="20.00" arrivalLane="CS_1" arrivalPos="86.40" arrivalSpeed="14.59" duration="20.00" routeLength="176.73" waitingTime="0.00" waitingCount="0" stopTime="0.00" timeLoss="6.96" rerouteNo="0" devices="tripinfo_0.0 emissions_0.0 fcd_0.0" vType="DEFAULT_VEHTYPE" speedFactor="1.06" vaporized="">
        <emissions CO_abs="1703.329967" CO2_abs="93439.449373" HC_abs="9.933232" PMx_abs="1.811094" NOx_abs="39.418108" fuel_abs="29802.857228" electricity_abs="0"/>
    </tripinfo>
    <tripinfo id="2.0" depart="0.00" departLane="EC_1" departPos="5.10" departSpeed="0.00" departDelay="0.00" arrival="21.00" arrivalLane="CN_1" arrivalPos="100.00" arrivalSpeed="13.40" duration="21.00" routeLength="190.33" waitingTime="0.00" waitingCount="0" stopTime="0.00" timeLoss="6.72" rerouteNo="0" devices="tripinfo_2.0 emissions_2.0 fcd_2.0" vType="DEFAULT_VEHTYPE" speedFactor="1.01" vaporized="">
        <emissions CO_abs="1677.472911" CO2_abs="88791.688308" HC_abs="9.649092" PMx_abs="1.668982" NOx_abs="37.148075" fuel_abs="28320.524274" electricity_abs="0"/>
    </tripinfo>
    <tripinfo id="0.2" depart="15.00" departLane="WC_1" departPos="5.10" departSpeed="0.00" departDelay="0.00" arrival="32.00" arrivalLane="CE_2" arrivalPos="86.40" arrivalSpeed="13.67" duration="17.00" routeLength="194.90" waitingTime="0.00" waitingCount="0" stopTime="0.00" timeLoss="3.57" rerouteNo="0" devices="tripinfo_0.2 emissions_0.2 fcd_0.2" vType="DEFAULT_VEHTYPE" speedFactor="1.05" vaporized="">
        <emissions CO_abs="947.551545" CO2_abs="65296.818953" HC_abs="5.748203" PMx_abs="1.067656" NOx_abs="25.849726" fuel_abs="20826.750710" electricity_abs="0"/>
    </tripinfo>
    <tripinfo id="0.1" depart="8.00" departLane="WC_1" departPos="5.10" departSpeed="0.00" departDelay="0.50" arrival="36.00" arrivalLane="CN_3" arrivalPos="100.00" arrivalSpeed="13.12" duration="28.00" routeLength="205.81" waitingTime="4.00" waitingCount="1" stopTime="0.00" timeLoss="12.36" rerouteNo="0" devices="tripinfo_0.1 emissions_0.1 fcd_0.1" vType="DEFAULT_VEHTYPE" speedFactor="1.03" vaporized="">
        <emissions CO_abs="2624.373611" CO2_abs="113134.328862" HC_abs="14.624535" PMx_abs="2.231881" NOx_abs="48.024765" fuel_abs="36084.930622" electricity_abs="0"/>
    </tripinfo>
    <tripinfo id="2.1" depart="17.00" departLane="EC_1" departPos="5.10" departSpeed="0.00" departDelay="0.50" arrival="37.00" arrivalLane="CW_2" arrivalPos="86.40" arrivalSpeed="11.29" duration="20.00" routeLength="194.90" waitingTime="0.00" waitingCount="0" stopTime="0.00" timeLoss="3.75" rerouteNo="0" devices="tripinfo_2.1 emissions_2.1 fcd_2.1" vType="DEFAULT_VEHTYPE" speedFactor="0.89" vaporized="">
        <emissions CO_abs="1090.805241" CO2_abs="64782.144533" HC_abs="6.426499" PMx_abs="1.099259" NOx_abs="26.189238" fuel_abs="20662.638946" electricity_abs="0"/>
    </tripinfo>
    <personinfo id="ped5" depart="9.00" type="DEFAULT_PEDTYPE" speedFactor="0.98">
        <walk depart="9.00" departPos="73.51" arrival="41.00" arrivalPos="21.64" duration="32.00" routeLength="38.78" timeLoss="3.65" maxSpeed="1.37"/>
    </personinfo>
    <tripinfo id="0.3" depart="23.00" departLane="WC_1" departPos="5.10" departSpeed="0.00" departDelay="0.50" arrival="42.00" arrivalLane="CS_1" arrivalPos="86.40" arrivalSpeed="14.70" duration="19.00" routeLength="176.73" waitingTime="0.00" waitingCount="0" stopTime="0.00" timeLoss="5.88" rerouteNo="0" devices="tripinfo_0.3 emissions_0.3 fcd_0.3" vType="DEFAULT_VEHTYPE" speedFactor="1.09" vaporized="">
        <emissions CO_abs="1706.508103" CO2_abs="96124.857092" HC_abs="10.012274" PMx_abs="1.835250" NOx_abs="40.264250" fuel_abs="30659.386859" electricity_abs="0"/>
    </tripinfo>
    <personinfo id="ped2" depart="4.00" type="DEFAULT_PEDTYPE" speedFactor="1.02">
        <walk depart="4.00" departPos="15.76" arrival="51.00" arrivalPos="80.17" duration="47.00" routeLength="56.79" timeLoss="7.00" maxSpeed="1.42"/>
    </personinfo>
    <tripinfo id="2.2" depart="33.00" departLane="EC_1" departPos="5.10" departSpeed="0.00" departDelay="0.00" arrival="51.00" arrivalLane="CS_3" arrivalPos="86.40" arrivalSpeed="13.95" duration="18.00" routeLength="192.21" waitingTime="0.00" waitingCount="0" stopTime="0.00" timeLoss="4.14" rerouteNo="0" devices="tripinfo_2.2 emissions_2.2 fcd_2.2" vType="DEFAULT_VEHTYPE" speedFactor="1.05" vaporized="">
        <emissions CO_abs="1460.758014" CO2_abs="88308.964084" HC_abs="8.673312" PMx_abs="1.678191" NOx_abs="36.848653" fuel_abs="28166.418473" electricity_abs="0"/>
    </tripinfo>
    <tripinfo id="1.2" depart="35.00" departLane="SC_1" departPos="5.10" departSpeed="0.00" departDelay="0.00" arrival="54.00" arrivalLane="CN_2" arrivalPos="100.00" arrivalSpeed="15.50" duration="19.00" routeLength="208.50" waitingTime="0.00" waitingCount="0" stopTime="0.00" timeLoss="5.23" rerouteNo="0" devices="tripinfo_1.2 emissions_1.2 fcd_1.2" vType="DEFAULT_VEHTYPE" speedFactor="1.12" vaporized="">
        <emissions CO_abs="1368.013714" CO2_abs="88286.830004" HC_abs="8.243375" PMx_abs="1.584861" NOx_abs="36.038572" fuel_abs="28159.428262" electricity_abs="0"/>
    </tripinfo>
    <tripinfo id="1.1" depart="18.00" departLane="SC_1" departPos="5.10" departSpeed="0.00" departDelay="0.50" arrival="55.00" arrivalLane="CE_1" arrivalPos="86.40" arrivalSpeed="12.53" duration="37.00" routeLength="176.73" waitingTime="14.00" waitingCount="1" stopTime="0.00" timeLoss="22.35" rerouteNo="0" devices="tripinfo_1.1 emissions_1.1 fcd_1.1" vType="DEFAULT_VEHTYPE" speedFactor="0.94" vaporized="">
        <emissions CO_abs="4129.161365" CO2_abs="125471.776338" HC_abs="21.690236" PMx_abs="2.567578" NOx_abs="53.852479" fuel_abs="40020.704464" electricity_abs="0"/>
    </tripinfo>
    <tripinfo id="3.0" depart="0.00" departLane="NC_1" departPos="5.10" departSpeed="0.00" departDelay="0.00" arrival="56.00" arrivalLane="CS_2" arrivalPos="86.40" arrivalSpeed="13.96" duration="56.00" routeLength="208.50" waitingTime="32.00" waitingCount="1" stopTime="0.00" timeLoss="41.39" rerouteNo="0" devices="tripinfo_3.0 emissions_3.0 fcd_3.0" vType="DEFAULT_VEHTYPE" speedFactor="1.08" vaporized="">
        <emissions CO_abs="7439.389475" CO2_abs="190982.335038" HC_abs="38.387370" PMx_abs="4.227551" NOx_abs="83.996385" fuel_abs="60916.451676" electricity_abs="0"/>
    </tripinfo>
    <tripinfo id="3.1" depart="18.00" departLane="NC_1" departPos="5.10" departSpeed="0.00" departDelay="0.00" arrival="60.00" arrivalLane="CS_2" arrivalPos="86.40" arrivalSpeed="11.09" duration="42.00" routeLength="208.50" waitingTime="14.00" waitingCount="1" stopTime="0.00" timeLoss="23.60" rerouteNo="0" devices="tripinfo_3.1 emissions_3.1 fcd_3.1" vType="DEFAULT_VEHTYPE" speedFactor="0.86" vaporized="">
        <emissions CO_abs="4185.327313" CO2_abs="128978.443658" HC_abs="22.075983" PMx_abs="2.581809" NOx_abs="55.039886" fuel_abs="41139.227149" electricity_abs="0"/>
    </tripinfo>
    <tripinfo id="3.2" depart="36.00" departLane="NC_1" departPos="5.10" departSpeed="0.00" departDelay="0.00" arrival="61.00" arrivalLane="CS_2" arrivalPos="86.40" arrivalSpeed="13.71" duration="25.00" routeLength="208.50" waitingTime="0.00" waitingCount="0" stopTime="0.00" timeLoss="9.59" rerouteNo="0" devices="tripinfo_3.2 emissions_3.2 fcd_3.2" vType="DEFAULT_VEHTYPE" speedFactor="0.99" vaporized="">
        <emissions CO_abs="1823.671831" CO2_abs="98270.643008" HC_abs="10.633596" PMx_abs="1.906891" NOx_abs="41.602101" fuel_abs="31343.800688" electricity_abs="0"/>
    </tripinfo>
    <tripinfo id="1.3" depart="53.00" departLane="SC_1" departPos="5.10" departSpeed="0.00" departDelay="0.50" arrival="71.00" arrivalLane="CN_2" arrivalPos="100.00" arrivalSpeed="15.99" duration="18.00" routeLength="208.50" waitingTime="0.00" waitingCount="0" stopTime="0.00" timeLoss="4.28" rerouteNo="0" devices="tripinfo_1.3 emissions_1.3 fcd_1.3" vType="DEFAULT_VEHTYPE" speedFactor="1.16" vaporized="">
        <emissions CO_abs="1209.740152" CO2_abs="79996.681812" HC_abs="7.254689" PMx_abs="1.405271" NOx_abs="32.185126" fuel_abs="25515.266264" electricity_abs="0"/>
    </tripinfo>
    <tripinfo id="1.0" depart="0.00" departLane="SC_1" departPos="5.10" departSpeed="0.00" departDelay="0.00" arrival="72.00" arrivalLane="CW_3" arrivalPos="86.40" arrivalSpeed="12.13" duration="72.00" routeLength="192.21" waitingTime="39.00" waitingCount="3" stopTime="0.00" timeLoss="56.21" rerouteNo="0" devices="tripinfo_1.0 emissions_1.0 fcd_1.0" vType="DEFAULT_VEHTYPE" speedFactor="0.94" vaporized="">
        <emissions CO_abs="9356.454819" CO2_abs="213268.045495" HC_abs="47.623671" PMx_abs="4.804966" NOx_abs="94.586813" fuel_abs="68025.338291" electricity_abs="0"/>
    </tripinfo>
    <tripinfo id="3.3" depart="54.00" departLane="NC_1" departPos="5.10" departSpeed="0.00" departDelay="0.00" arrival="74.00" arrivalLane="CW_1" arrivalPos="86.40" arrivalSpeed="14.02" duration="20.00" routeLength="190.33" waitingTime="0.00" waitingCount="0" stopTime="0.00" timeLoss="5.76" rerouteNo="0" devices="tripinfo_3.3 emissions_3.3 fcd_3.3" vType="DEFAULT_VEHTYPE" speedFactor="1.02" vaporized="">
        <emissions CO_abs="1577.727737" CO2_abs="92815.886362" HC_abs="9.337570" PMx_abs="1.727038" NOx_abs="38.615611" fuel_abs="29603.983506" electricity_abs="0"/>
    </tripinfo>
    <personinfo id="ped9" depart="28.00" type="DEFAULT_PEDTYPE" speedFactor="1.02">
        <walk depart="28.00" departPos="0.73" arrival="90.00" arrivalPos="45.57" duration="62.00" routeLength="76.36" timeLoss="7.93" maxSpeed="1.41"/>
    </personinfo>
    <personinfo id="ped8" depart="25.00" type="DEFAULT_PEDTYPE" speedFactor="1.03">
        <walk depart="25.00" departPos="64.03" arrival="95.00" arrivalPos="64.76" duration="70.00" routeLength="89.91" timeLoss="7.42" maxSpeed="1.44"/>
    </personinfo>
    <tripinfo id="0.4" depart="30.00" departLane="WC_1" departPos="5.10" departSpeed="0.00" departDelay="0.00" arrival="101.00" arrivalLane="CE_2" arrivalPos="86.40" arrivalSpeed="13.17" duration="71.00" routeLength="194.90" waitingTime="49.00" waitingCount="1" stopTime="0.00" timeLoss="56.62" rerouteNo="0" devices="tripinfo_0.4 emissions_0.4 fcd_0.4" vType="DEFAULT_VEHTYPE" speedFactor="1.03" vaporized="">
        <emissions CO_abs="10025.341853" CO2_abs="228393.468071" HC_abs="50.928939" PMx_abs="5.176632" NOx_abs="101.062193" fuel_abs="72849.816141" electricity_abs="0"/>
    </tripinfo>
    <tripinfo id="2.3" depart="50.00" departLane="EC_1" departPos="5.10" departSpeed="0.00" departDelay="0.50" arrival="102.00" arrivalLane="CN_1" arrivalPos="100.00" arrivalSpeed="12.61" duration="52.00" routeLength="190.33" waitingTime="26.00" waitingCount="1" stopTime="0.00" timeLoss="36.47" rerouteNo="0" devices="tripinfo_2.3 emissions_2.3 fcd_2.3" vType="DEFAULT_VEHTYPE" speedFactor="0.94" vaporized="">
        <emissions CO_abs="6354.706740" CO2_abs="163549.165525" HC_abs="32.770183" PMx_abs="3.528988" NOx_abs="71.364058" fuel_abs="52166.353405" electricity_abs="0"/>
    </tripinfo>
    <tripinfo id="0.7" depart="53.00" departLane="WC_1" departPos="5.10" departSpeed="0.00" departDelay="0.50" arrival="102.00" arrivalLane="CS_1" arrivalPos="86.40" arrivalSpeed="11.96" duration="49.00" routeLength="176.73" waitingTime="25.00" waitingCount="1" stopTime="0.00" timeLoss="34.11" rerouteNo="0" devices="tripinfo_0.7 emissions_0.7 fcd_0.7" vType="DEFAULT_VEHTYPE" speedFactor="0.94" vaporized="">
        <emissions CO_abs="6114.849630" CO2_abs="157407.552304" HC_abs="31.468422" PMx_abs="3.366975" NOx_abs="68.512878" fuel_abs="50207.422388" electricity_abs="0"/>
    </tripinfo>
    <tripinfo id="0.6" depart="45.00" departLane="WC_1" departPos="5.10" departSpeed="0.00" departDelay="0.00" arrival="104.00" arrivalLane="CE_2" arrivalPos="86.40" arrivalSpeed="11.70" duration="59.00" routeLength="194.90" waitingTime="35.00" waitingCount="1" stopTime="0.00" timeLoss="42.72" rerouteNo="0" devices="tripinfo_0.6 emissions_0.6 fcd_0.6" vType="DEFAULT_VEHTYPE" speedFactor="0.88" vaporized="">
        <emissions CO_abs="7571.511027" CO2_abs="178588.189373" HC_abs="38.666101" PMx_abs="3.906209" NOx_abs="78.329656" fuel_abs="56963.606610" electricity_abs="0"/>
    </tripinfo>
    <tripinfo id="2.5" depart="83.00" departLane="EC_1" departPos="5.10" departSpeed="0.00" departDelay="0.50" arrival="104.00" arrivalLane="CN_1" arrivalPos="100.00" arrivalSpeed="15.53" duration="21.00" routeLength="190.33" waitingTime="0.00" waitingCount="0" stopTime="0.00" timeLoss="7.31" rerouteNo="0" devices="tripinfo_2.5 emissions_2.5 fcd_2.5" vType="DEFAULT_VEHTYPE" speedFactor="1.13" vaporized="">
        <emissions CO_abs="1858.307252" CO2_abs="100748.494696" HC_abs="10.868111" PMx_abs="2.042339" NOx_abs="43.158615" fuel_abs="32134.019195" electricity_abs="0"/>
    </tripinfo>
    <personinfo id="ped3" depart="6.00" type="DEFAULT_PEDTYPE" speedFactor="0.97">
        <walk depart="6.00" departPos="9.91" arrival="106.00" arrivalPos="68.21" duration="100.00" routeLength="119.06" timeLoss="11.89" maxSpeed="1.35"/>
    </personinfo>
    <tripinfo id="0.8" depart="60.00" departLane="WC_1" departPos="5.10" departSpeed="0.00" departDelay="0.00" arrival="106.00" arrivalLane="CE_2" arrivalPos="86.40" arrivalSpeed="13.11" duration="46.00" routeLength="194.90" waitingTime="20.00" waitingCount="1" stopTime="0.00" timeLoss="31.52" rerouteNo="0" devices="tripinfo_0.8 emissions_0.8 fcd_0.8" vType="DEFAULT_VEHTYPE" speedFactor="1.01" vaporized="">
        <emissions CO_abs="5401.794625" CO2_abs="149525.242704" HC_abs="28.114909" PMx_abs="3.175706" NOx_abs="65.019590" fuel_abs="47693.014061" electricity_abs="0"/>
    </tripinfo>
    <tripinfo id="0.12" depart="90.00" departLane="WC_1" departPos="5.10" departSpeed="0.00" departDelay="0.00" arrival="108.00" arrivalLane="CE_2" arrivalPos="86.40" arrivalSpeed="15.87" duration="18.00" routeLength="194.90" waitingTime="0.00" waitingCount="0" stopTime="0.00" timeLoss="5.24" rerouteNo="0" devices="tripinfo_0.12 emissions_0.12 fcd_0.12" vType="DEFAULT_VEHTYPE" speedFactor="1.18" vaporized="">
        <emissions CO_abs="1354.261374" CO2_abs="84486.895531" HC_abs="8.175974" PMx_abs="1.611968" NOx_abs="35.235694" fuel_abs="26947.344108" electricity_abs="0"/>
    </tripinfo>
    <personinfo id="ped0" depart="1.00" type="DEFAULT_PEDTYPE" speedFactor="0.83">
        <walk depart="1.00" departPos="58.15" arrival="112.00" arrivalPos="0.52" duration="111.00" routeLength="55.97" timeLoss="62.50" maxSpeed="1.15"/>
    </personinfo>
    <personinfo id="ped24" depart="65.00" type="DEFAULT_PEDTYPE" speedFactor="1.06">
        <walk depart="65.00" departPos="63.88" arrival="113.00" arrivalPos="91.68" duration="48.00" routeLength="55.22" timeLoss="10.66" maxSpeed="1.48"/>
    </personinfo>
    <tripinfo id="2.4" depart="66.00" departLane="EC_1" departPos="5.10" departSpeed="0.00" departDelay="0.00" arrival="113.00" arrivalLane="CS_3" arrivalPos="86.40" arrivalSpeed="12.44" duration="47.00" routeLength="192.21" waitingTime="16.00" waitingCount="2" stopTime="0.00" timeLoss="32.05" rerouteNo="0" devices="tripinfo_2.4 emissions_2.4 fcd_2.4" vType="DEFAULT_VEHTYPE" speedFactor="0.97" vaporized="">
        <emissions CO_abs="5567.547020" CO2_abs="153812.018447" HC_abs="28.950147" PMx_abs="3.306674" NOx_abs="67.226053" fuel_abs="49060.288149" electricity_abs="0"/>
    </tripinfo>
    <tripinfo id="0.10" depart="75.00" departLane="WC_1" departPos="5.10" departSpeed="0.00" departDelay="0.00" arrival="115.00" arrivalLane="CS_1" arrivalPos="86.40" arrivalSpeed="11.79" duration="40.00" routeLength="176.73" waitingTime="12.00" waitingCount="2" stopTime="0.00" timeLoss="24.39" rerouteNo="0" devices="tripinfo_0.10 emissions_0.10 fcd_0.10" vType="DEFAULT_VEHTYPE" speedFactor="0.92" vaporized="">
        <emissions CO_abs="4426.772836" CO2_abs="131931.524113" HC_abs="23.265441" PMx_abs="2.779232" NOx_abs="57.338800" fuel_abs="42081.070795" electricity_abs="0"/>
    </tripinfo>
    <tripinfo id="2.6" depart="99.00" departLane="EC_1" departPos="5.10" departSpeed="0.00" departDelay="0.00" arrival="115.00" arrivalLane="CW_2" arrivalPos="86.40" arrivalSpeed="15.13" duration="16.00" routeLength="194.90" waitingTime="0.00" waitingCount="0" stopTime="0.00" timeLoss="3.99" rerouteNo="0" devices="tripinfo_2.6 emissions_2.6 fcd_2.6" vType="DEFAULT_VEHTYPE" speedFactor="1.17" vaporized="">
        <emissions CO_abs="1267.227956" CO2_abs="76235.836197" HC_abs="7.470410" PMx_abs="1.451262" NOx_abs="31.536200" fuel_abs="24315.654741" electricity_abs="0"/>
    </tripinfo>
    <tripinfo id="4.0" depart="100.00" departLane="WC_1" departPos="6.60" departSpeed="0.00" departDelay="0.00" arrival="115.00" arrivalLane="CE_2" arrivalPos="86.40" arrivalSpeed="20.81" duration="15.00" routeLength="193.40" waitingTime="0.00" waitingCount="0" stopTime="0.00" timeLoss="5.36" rerouteNo="0" devices="tripinfo_4.0 emissions_4.0 bluelight_4.0 fcd_4.0" vType="rescue" speedFactor="1.50" vaporized="">
        <emissions CO_abs="5857.531698" CO2_abs="108712.520870" HC_abs="228.236950" PMx_abs="28.655711" NOx_abs="0" fuel_abs="34445.099579" electricity_abs="0"/>
        <bluelight/>
    </tripinfo>
    <personinfo id="ped26" depart="70.00" type="DEFAULT_PEDTYPE" speedFactor="1.10">
        <walk depart="70.00" departPos="45.75" arrival="117.00" arrivalPos="18.37" duration="47.00" routeLength="63.27" timeLoss="5.53" maxSpeed="1.53"/>
    </personinfo>
    <tripinfo id="0.5" depart="38.00" departLane="WC_1" departPos="5.10" departSpeed="0.00" departDelay="0.50" arrival="117.00" arrivalLane="CN_3" arrivalPos="100.00" arrivalSpeed="11.96" duration="79.00" routeLength="205.81" waitingTime="49.00" waitingCount="2" stopTime="0.00" timeLoss="62.05" rerouteNo="0" devices="tripinfo_0.5 emissions_0.5 fcd_0.5" vType="DEFAULT_VEHTYPE" speedFactor="0.93" vaporized="">
        <emissions CO_abs="10400.778695" CO2_abs="232320.258626" HC_abs="52.787589" PMx_abs="5.219252" NOx_abs="102.759842" fuel_abs="74102.515391" electricity_abs="0"/>
    </tripinfo>
    <tripinfo id="0.11" depart="83.00" departLane="WC_1" departPos="5.10" departSpeed="0.00" departDelay="0.50" arrival="117.00" arrivalLane="CS_1" arrivalPos="86.40" arrivalSpeed="12.67" duration="34.00" routeLength="176.73" waitingTime="6.00" waitingCount="1" stopTime="0.00" timeLoss="19.33" rerouteNo="0" devices="tripinfo_0.11 emissions_0.11 fcd_0.11" vType="DEFAULT_VEHTYPE" speedFactor="0.95" vaporized="">
        <emissions CO_abs="3489.657254" CO2_abs="116841.340945" HC_abs="18.645353" PMx_abs="2.411000" NOx_abs="50.514255" fuel_abs="37267.663019" electricity_abs="0"/>
    </tripinfo>
    <personinfo id="ped31" depart="79.00" type="DEFAULT_PEDTYPE" speedFactor="0.94">
        <walk depart="79.00" departPos="73.64" arrival="120.00" arrivalPos="6.77" duration="41.00" routeLength="46.73" timeLoss="5.26" maxSpeed="1.31"/>
    </personinfo>
    <personinfo id="ped29" depart="73.00" type="DEFAULT_PEDTYPE" speedFactor="1.00">
        <walk depart="73.00" departPos="97.45" arrival="120.00" arrivalPos="32.75" duration="47.00" routeLength="56.51" timeLoss="6.49" maxSpeed="1.39"/>
    </personinfo>
    <personinfo id="ped1" depart="3.00" type="DEFAULT_PEDTYPE" speedFactor="0.91">
        <walk depart="3.00" departPos="72.31" arrival="122.00" arrivalPos="27.94" duration="119.00" routeLength="135.01" timeLoss="12.71" maxSpeed="1.27"/>
    </personinfo>
    <tripinfo id="0.14" depart="105.00" departLane="WC_1" departPos="5.10" departSpeed="0.00" departDelay="0.00" arrival="127.00" arrivalLane="CS_1" arrivalPos="86.40" arrivalSpeed="13.81" duration="22.00" routeLength="176.73" waitingTime="1.00" waitingCount="1" stopTime="0.00" timeLoss="8.15" rerouteNo="0" devices="tripinfo_0.14 emissions_0.14 fcd_0.14" vType="DEFAULT_VEHTYPE" speedFactor="0.99" vaporized="">
        <emissions CO_abs="2027.106234" CO2_abs="96024.326921" HC_abs="11.503737" PMx_abs="1.886400" NOx_abs="40.794162" fuel_abs="30627.459433" electricity_abs="0"/>
    </tripinfo>
    <personinfo id="ped15" depart="46.00" type="DEFAULT_PEDTYPE" speedFactor="0.92">
        <walk depart="46.00" departPos="38.62" arrival="128.00" arrivalPos="22.83" duration="82.00" routeLength="91.82" timeLoss="10.25" maxSpeed="1.28"/>
    </personinfo>
    <personinfo id="ped6" depart="10.00" type="DEFAULT_PEDTYPE" speedFactor="1.03">
        <walk depart="10.00" departPos="81.28" arrival="128.00" arrivalPos="20.60" duration="118.00" routeLength="151.32" timeLoss="12.48" maxSpeed="1.43"/>
    </personinfo>
    <personinfo id="ped33" depart="87.00" type="DEFAULT_PEDTYPE" speedFactor="1.06">
        <walk depart="87.00" departPos="77.74" arrival="129.00" arrivalPos="65.80" duration="42.00" routeLength="53.65" timeLoss="5.59" maxSpeed="1.47"/>
    </personinfo>
    <personinfo id="ped21" depart="61.00" type="DEFAULT_PEDTYPE" speedFactor="0.97">
        <walk depart="61.00" departPos="33.26" arrival="131.00" arrivalPos="41.39" duration="70.00" routeLength="82.52" timeLoss="8.64" maxSpeed="1.34"/>
    </personinfo>
    <personinfo id="ped13" depart="43.00" type="DEFAULT_PEDTYPE" speedFactor="1.02">
        <walk depart="43.00" departPos="81.39" arrival="139.00" arrivalPos="47.15" duration="96.00" routeLength="78.74" timeLoss="40.53" maxSpeed="1.42"/>
    </personinfo>
    <personinfo id="ped20" depart="60.00" type="DEFAULT_PEDTYPE" speedFactor="1.06">
        <walk depart="60.00" departPos="41.15" arrival="140.00" arrivalPos="43.80" duration="80.00" routeLength="104.95" timeLoss="9.05" maxSpeed="1.48"/>
    </personinfo>
    <tripinfo id="0.9" depart="68.00" departLane="WC_1" departPos="5.10" departSpeed="0.00" departDelay="0.50" arrival="141.00" arrivalLane="CN_3" arrivalPos="100.00" arrivalSpeed="11.34" duration="73.00" routeLength="205.81" waitingTime="37.00" waitingCount="3" stopTime="0.00" timeLoss="55.39" rerouteNo="0" devices="tripinfo_0.9 emissions_0.9 fcd_0.9" vType="DEFAULT_VEHTYPE" speedFactor="0.89" vaporized="">
        <emissions CO_abs="9615.624012" CO2_abs="216261.255638" HC_abs="48.861584" PMx_abs="4.831412" NOx_abs="95.704761" fuel_abs="68980.195094" electricity_abs="0"/>
    </tripinfo>
    <tripinfo id="0.13" depart="98.00" departLane="WC_1" departPos="5.10" departSpeed="0.00" departDelay="0.50" arrival="143.00" arrivalLane="CN_3" arrivalPos="100.00" arrivalSpeed="12.83" duration="45.00" routeLength="205.81" waitingTime="17.00" waitingCount="1" stopTime="0.00" timeLoss="29.03" rerouteNo="0" devices="tripinfo_0.13 emissions_0.13 fcd_0.13" vType="DEFAULT_VEHTYPE" speedFactor="1.01" vaporized="">
        <emissions CO_abs="5159.320218" CO2_abs="152615.211679" HC_abs="27.105871" PMx_abs="3.307736" NOx_abs="66.876556" fuel_abs="48678.293088" electricity_abs="0"/>
    </tripinfo>
    <tripinfo id="0.15" depart="113.00" departLane="WC_1" departPos="5.10" departSpeed="0.00" departDelay="0.50" arrival="145.00" arrivalLane="CN_3" arrivalPos="100.00" arrivalSpeed="15.53" duration="32.00" routeLength="205.81" waitingTime="5.00" waitingCount="1" stopTime="0.00" timeLoss="18.01" rerouteNo="0" devices="tripinfo_0.15 emissions_0.15 fcd_0.15" vType="DEFAULT_VEHTYPE" speedFactor="1.18" vaporized="">
        <emissions CO_abs="3468.086073" CO2_abs="135224.276911" HC_abs="19.013270" PMx_abs="2.854478" NOx_abs="58.689324" fuel_abs="43130.655676" electricity_abs="0"/>
    </tripinfo>
    <tripinfo id="1.6" depart="105.00" departLane="SC_1" departPos="5.10" departSpeed="0.00" departDelay="0.00" arrival="146.00" arrivalLane="CE_1" arrivalPos="86.40" arrivalSpeed="13.14" duration="41.00" routeLength="176.73" waitingTime="19.00" waitingCount="1" stopTime="0.00" timeLoss="27.81" rerouteNo="0" devices="tripinfo_1.6 emissions_1.6 fcd_1.6" vType="DEFAULT_VEHTYPE" speedFactor="1.02" vaporized="">
        <emissions CO_abs="5075.378964" CO2_abs="142969.268342" HC_abs="26.487249" PMx_abs="3.090704" NOx_abs="62.538483" fuel_abs="45601.781221" electricity_abs="0"/>
    </tripinfo>
    <tripinfo id="3.4" depart="72.00" departLane="NC_1" departPos="5.10" departSpeed="0.00" departDelay="0.00" arrival="148.00" arrivalLane="CW_1" arrivalPos="86.40" arrivalSpeed="10.99" duration="76.00" routeLength="190.33" waitingTime="49.00" waitingCount="1" stopTime="0.00" timeLoss="59.42" rerouteNo="0" devices="tripinfo_3.4 emissions_3.4 fcd_3.4" vType="DEFAULT_VEHTYPE" speedFactor="0.87" vaporized="">
        <emissions CO_abs="10365.411673" CO2_abs="221536.938772" HC_abs="52.407590" PMx_abs="5.059562" NOx_abs="98.587785" fuel_abs="70663.178492" electricity_abs="0"/>
    </tripinfo>
    <tripinfo id="1.4" depart="70.00" departLane="SC_1" departPos="5.10" departSpeed="0.00" departDelay="0.00" arrival="149.00" arrivalLane="CN_2" arrivalPos="100.00" arrivalSpeed="10.98" duration="79.00" routeLength="208.50" waitingTime="53.00" waitingCount="1" stopTime="0.00" timeLoss="60.04" rerouteNo="0" devices="tripinfo_1.4 emissions_1.4 fcd_1.4" vType="DEFAULT_VEHTYPE" speedFactor="0.83" vaporized="">
        <emissions CO_abs="10506.779987" CO2_abs="226989.801763" HC_abs="53.168286" PMx_abs="5.104360" NOx_abs="100.454634" fuel_abs="72402.488518" electricity_abs="0"/>
    </tripinfo>
    <tripinfo id="1.5" depart="88.00" departLane="SC_1" departPos="5.10" departSpeed="0.00" departDelay="0.50" arrival="150.00" arrivalLane="CN_2" arrivalPos="100.00" arrivalSpeed="12.20" duration="62.00" routeLength="208.50" waitingTime="36.00" waitingCount="1" stopTime="0.00" timeLoss="45.79" rerouteNo="0" devices="tripinfo_1.5 emissions_1.5 fcd_1.5" vType="DEFAULT_VEHTYPE" speedFactor="0.93" vaporized="">
        <emissions CO_abs="7997.789967" CO2_abs="193007.514544" HC_abs="40.885606" PMx_abs="4.188964" NOx_abs="84.313608" fuel_abs="61562.812828" electricity_abs="0"/>
    </tripinfo>
    <tripinfo id="1.7" depart="123.00" departLane="SC_1" departPos="5.10" departSpeed="0.00" departDelay="0.50" arrival="152.00" arrivalLane="CN_2" arrivalPos="100.00" arrivalSpeed="13.42" duration="29.00" routeLength="208.50" waitingTime="3.00" waitingCount="1" stopTime="0.00" timeLoss="13.93" rerouteNo="0" devices="tripinfo_1.7 emissions_1.7 fcd_1.7" vType="DEFAULT_VEHTYPE" speedFactor="1.03" vaporized="">
        <emissions CO_abs="2753.998182" CO2_abs="111352.067590" HC_abs="15.139127" PMx_abs="2.233077" NOx_abs="47.568464" fuel_abs="35516.526714" electricity_abs="0"/>
    </tripinfo>
    <personinfo id="ped40" depart="107.00" type="DEFAULT_PEDTYPE" speedFactor="1.01">
        <walk depart="107.00" departPos="0.45" arrival="156.00" arrivalPos="53.22" duration="49.00" routeLength="60.82" timeLoss="5.72" maxSpeed="1.41"/>
    </personinfo>
    <personinfo id="ped27" depart="71.00" type="DEFAULT_PEDTYPE" speedFactor="1.10">
        <walk depart="71.00" departPos="20.79" arrival="157.00" arrivalPos="92.58" duration="86.00" routeLength="62.43" timeLoss="45.00" maxSpeed="1.52"/>
    </personinfo>
    <tripinfo id="1.8" depart="140.00" departLane="SC_1" departPos="5.10" departSpeed="0.00" departDelay="0.00" arrival="158.00" arrivalLane="CN_2" arrivalPos="100.00" arrivalSpeed="14.17" duration="18.00" routeLength="208.50" waitingTime="0.00" waitingCount="0" stopTime="0.00" timeLoss="3.49" rerouteNo="0" devices="tripinfo_1.8 emissions_1.8 fcd_1.8" vType="DEFAULT_VEHTYPE" speedFactor="1.09" vaporized="">
        <emissions CO_abs="1063.893665" CO2_abs="71978.010812" HC_abs="6.478716" PMx_abs="1.271790" NOx_abs="29.172940" fuel_abs="22957.657133" electricity_abs="0"/>
    </tripinfo>
    <tripinfo id="3.6" depart="108.00" departLane="NC_1" departPos="5.10" departSpeed="0.00" departDelay="0.00" arrival="159.00" arrivalLane="CW_1" arrivalPos="86.40" arrivalSpeed="12.92" duration="51.00" routeLength="190.33" waitingTime="23.00" waitingCount="2" stopTime="0.00" timeLoss="36.30" rerouteNo="0" devices="tripinfo_3.6 emissions_3.6 fcd_3.6" vType="DEFAULT_VEHTYPE" speedFactor="0.97" vaporized="">
        <emissions CO_abs="6302.150679" CO2_abs="165473.396967" HC_abs="32.561416" PMx_abs="3.586803" NOx_abs="72.414176" fuel_abs="52780.004351" electricity_abs="0"/>
    </tripinfo>
    <tripinfo id="3.7" depart="126.00" departLane="NC_1" departPos="5.10" departSpeed="0.00" departDelay="0.00" arrival="162.00" arrivalLane="CW_1" arrivalPos="86.40" arrivalSpeed="13.20" duration="36.00" routeLength="190.33" waitingTime="6.00" waitingCount="1" stopTime="0.00" timeLoss="20.48" rerouteNo="0" devices="tripinfo_3.7 emissions_3.7 fcd_3.7" vType="DEFAULT_VEHTYPE" speedFactor="0.96" vaporized="">