<?xml version="1.0" encoding="UTF-8"?>

<!-- generated on 2023-12-02 16:10:29 by Eclipse SUMO GUI Version 1.15.0
<configuration xmlns:xsi="http://www.w3.org/2001/XMLSchema-instance" xsi:noNamespaceSchemaLocation="http://sumo.dlr.de/xsd/sumoConfiguration.xsd">

    <input>
        <net-file value="std_crossroad.net.xml"/>
        <route-files value="Routes.rou.xml,std_crossroad.ped.xml"/>
        <additional-files value="std_crossroad.det.xml,emissionOut.xml"/>
    </input>

    <output>
        <write-license value="true"/>
        <emission-output value="true"/>
        <fcd-output value="false"/>
        <tripinfo-output value="tripinfo.xml"/>
    </output>

    <report>
        <verbose value="true"/>
        <no-step-log value="true"/>
    </report>

    <traci_server>
        <remote-port value="49918"/>
    </traci_server>

    <gui_only>
        <gui-settings-file value="viewsettings.xml"/>
    </gui_only>

</configuration>
-->

<tripinfos xmlns:xsi="http://www.w3.org/2001/XMLSchema-instance" xsi:noNamespaceSchemaLocation="http://sumo.dlr.de/xsd/tripinfo_file.xsd">
    <tripinfo id="3.0" depart="0.00" departLane="NC_1" departPos="5.10" departSpeed="0.00" departDelay="0.00" arrival="18.00" arrivalLane="CS_2" arrivalPos="86.40" arrivalSpeed="14.13" duration="18.00" routeLength="208.50" waitingTime="0.00" waitingCount="0" stopTime="0.00" timeLoss="3.99" rerouteNo="0" devices="tripinfo_3.0 emissions_3.0 fcd_3.0" vType="DEFAULT_VEHTYPE" speedFactor="1.08" vaporized="">
        <emissions CO_abs="1200.065285" CO2_abs="73716.825512" HC_abs="7.123107" PMx_abs="1.342457" NOx_abs="30.231652" fuel_abs="23512.272558" electricity_abs="0"/>
    </tripinfo>
    <tripinfo id="2.0" depart="0.00" departLane="EC_1" departPos="5.10" departSpeed="0.00" departDelay="0.00" arrival="21.00" arrivalLane="CN_1" arrivalPos="100.00" arrivalSpeed="13.40" duration="21.00" routeLength="190.33" waitingTime="0.00" waitingCount="0" stopTime="0.00" timeLoss="6.72" rerouteNo="0" devices="tripinfo_2.0 emissions_2.0 fcd_2.0" vType="DEFAULT_VEHTYPE" speedFactor="1.01" vaporized="">
        <emissions CO_abs="1677.472911" CO2_abs="88791.688308" HC_abs="9.649092" PMx_abs="1.668982" NOx_abs="37.148075" fuel_abs="28320.524274" electricity_abs="0"/>
    </tripinfo>
    <tripinfo id="0.0" depart="0.00" departLane="WC_1" departPos="5.10" departSpeed="0.00" departDelay="0.00" arrival="28.00" arrivalLane="CS_1" arrivalPos="86.40" arrivalSpeed="14.59" duration="28.00" routeLength="176.73" waitingTime="6.00" waitingCount="1" stopTime="0.00" timeLoss="15.23" rerouteNo="0" devices="tripinfo_0.0 emissions_0.0 fcd_0.0" vType="DEFAULT_VEHTYPE" speedFactor="1.06" vaporized="">
        <emissions CO_abs="3134.537830" CO2_abs="118292.027647" HC_abs="17.079132" PMx_abs="2.450081" NOx_abs="51.024997" fuel_abs="37730.123637" electricity_abs="0"/>
    </tripinfo>
    <tripinfo id="1.0" depart="0.00" departLane="SC_1" departPos="5.10" departSpeed="0.00" departDelay="0.00" arrival="32.00" arrivalLane="CW_3" arrivalPos="86.40" arrivalSpeed="12.13" duration="32.00" routeLength="192.21" waitingTime="6.00" waitingCount="1" stopTime="0.00" timeLoss="15.78" rerouteNo="0" devices="tripinfo_1.0 emissions_1.0 fcd_1.0" vType="DEFAULT_VEHTYPE" speedFactor="0.94" vaporized="">
        <emissions CO_abs="3008.242742" CO2_abs="110311.543222" HC_abs="16.296722" PMx_abs="2.211507" NOx_abs="47.193510" fuel_abs="35184.819299" electricity_abs="0"/>
    </tripinfo>
    <tripinfo id="2.1" depart="17.00" departLane="EC_1" departPos="5.10" departSpeed="0.00" departDelay="0.50" arrival="37.00" arrivalLane="CW_2" arrivalPos="86.40" arrivalSpeed="11.20" duration="20.00" routeLength="194.90" waitingTime="0.00" waitingCount="0" stopTime="0.00" timeLoss="3.63" rerouteNo="0" devices="tripinfo_2.1 emissions_2.1 fcd_2.1" vType="DEFAULT_VEHTYPE" speedFactor="0.89" vaporized="">
        <emissions CO_abs="948.049213" CO2_abs="59495.325416" HC_abs="5.635913" PMx_abs="0.914411" NOx_abs="23.370010" fuel_abs="18976.455954" electricity_abs="0"/>
    </tripinfo>
    <tripinfo id="1.1" depart="18.00" departLane="SC_1" departPos="5.10" departSpeed="0.00" departDelay="0.50" arrival="38.00" arrivalLane="CE_1" arrivalPos="86.40" arrivalSpeed="12.53" duration="20.00" routeLength="176.73" waitingTime="0.00" waitingCount="0" stopTime="0.00" timeLoss="4.91" rerouteNo="0" devices="tripinfo_1.1 emissions_1.1 fcd_1.1" vType="DEFAULT_VEHTYPE" speedFactor="0.94" vaporized="">
        <emissions CO_abs="1282.971904" CO2_abs="74499.757851" HC_abs="7.534796" PMx_abs="1.343936" NOx_abs="30.752085" fuel_abs="23762.042412" electricity_abs="0"/>
    </tripinfo>
    <personinfo id="ped5" depart="9.00" type="DEFAULT_PEDTYPE" speedFactor="0.98">
        <walk depart="9.00" departPos="73.51" arrival="41.00" arrivalPos="21.64" duration="32.00" routeLength="38.78" timeLoss="3.65" maxSpeed="1.37"/>
    </personinfo>
    <tripinfo id="0.3" depart="23.00" departLane="WC_1" departPos="5.10" departSpeed="0.00" departDelay="0.50" arrival="42.00" arrivalLane="CS_1" arrivalPos="86.40" arrivalSpeed="14.70" duration="19.00" routeLength="176.73" waitingTime="0.00" waitingCount="0" stopTime="0.00" timeLoss="5.82" rerouteNo="0" devices="tripinfo_0.3 emissions_0.3 fcd_0.3" vType="DEFAULT_VEHTYPE" speedFactor="1.09" vaporized="">
        <emissions CO_abs="1618.166191" CO2_abs="92300.977136" HC_abs="9.521345" PMx_abs="1.768306" NOx_abs="38.689073" fuel_abs="29439.726586" electricity_abs="0"/>
    </tripinfo>
    <tripinfo id="0.2" depart="15.00" departLane="WC_1" departPos="5.10" departSpeed="0.00" departDelay="0.00" arrival="48.00" arrivalLane="CE_2" arrivalPos="86.40" arrivalSpeed="14.24" duration="33.00" routeLength="194.90" waitingTime="9.00" waitingCount="1" stopTime="0.00" timeLoss="18.69" rerouteNo="0" devices="tripinfo_0.2 emissions_0.2 fcd_0.2" vType="DEFAULT_VEHTYPE" speedFactor="1.05" vaporized="">
        <emissions CO_abs="3472.114014" CO2_abs="124573.125887" HC_abs="18.696957" PMx_abs="2.500517" NOx_abs="53.009213" fuel_abs="39733.730428" electricity_abs="0"/>
    </tripinfo>
    <tripinfo id="0.4" depart="30.00" departLane="WC_1" departPos="5.10" departSpeed="0.00" departDelay="0.00" arrival="49.00" arrivalLane="CE_2" arrivalPos="86.40" arrivalSpeed="14.12" duration="19.00" routeLength="194.90" waitingTime="0.00" waitingCount="0" stopTime="0.00" timeLoss="5.21" rerouteNo="0" devices="tripinfo_0.4 emissions_0.4 fcd_0.4" vType="DEFAULT_VEHTYPE" speedFactor="1.03" vaporized="">
        <emissions CO_abs="1415.313506" CO2_abs="84575.354600" HC_abs="8.415721" PMx_abs="1.552421" NOx_abs="35.005220" fuel_abs="26975.652275" electricity_abs="0"/>
    </tripinfo>
    <tripinfo id="0.1" depart="8.00" departLane="WC_1" departPos="5.10" departSpeed="0.00" departDelay="0.50" arrival="50.00" arrivalLane="CN_3" arrivalPos="100.00" arrivalSpeed="13.12" duration="42.00" routeLength="205.81" waitingTime="16.00" waitingCount="1" stopTime="0.00" timeLoss="26.96" rerouteNo="0" devices="tripinfo_0.1 emissions_0.1 fcd_0.1" vType="DEFAULT_VEHTYPE" speedFactor="1.03" vaporized="">
        <emissions CO_abs="4925.721964" CO2_abs="148979.033682" HC_abs="25.948494" PMx_abs="3.167024" NOx_abs="64.820259" fuel_abs="47518.499071" electricity_abs="0"/>
    </tripinfo>
    <personinfo id="ped2" depart="4.00" type="DEFAULT_PEDTYPE" speedFactor="1.02">
        <walk depart="4.00" departPos="15.76" arrival="51.00" arrivalPos="80.17" duration="47.00" routeLength="56.79" timeLoss="7.00" maxSpeed="1.42"/>
    </personinfo>
    <personinfo id="ped0" depart="1.00" type="DEFAULT_PEDTYPE" speedFactor="0.83">
        <walk depart="1.00" departPos="58.15" arrival="60.00" arrivalPos="0.52" duration="59.00" routeLength="55.97" timeLoss="10.50" maxSpeed="1.15"/>
    </personinfo>
    <tripinfo id="0.5" depart="38.00" departLane="WC_1" departPos="5.10" departSpeed="0.00" departDelay="0.50" arrival="61.00" arrivalLane="CN_3" arrivalPos="100.00" arrivalSpeed="11.96" duration="23.00" routeLength="205.81" waitingTime="0.00" waitingCount="0" stopTime="0.00" timeLoss="5.47" rerouteNo="0" devices="tripinfo_0.5 emissions_0.5 fcd_0.5" vType="DEFAULT_VEHTYPE" speedFactor="0.93" vaporized="">
        <emissions CO_abs="1531.548713" CO2_abs="85565.275673" HC_abs="8.961200" PMx_abs="1.604805" NOx_abs="35.784852" fuel_abs="27291.406345" electricity_abs="0"/>
    </tripinfo>
    <tripinfo id="0.6" depart="45.00" departLane="WC_1" departPos="5.10" departSpeed="0.00" departDelay="0.00" arrival="65.00" arrivalLane="CE_2" arrivalPos="86.40" arrivalSpeed="11.31" duration="20.00" routeLength="194.90" waitingTime="0.00" waitingCount="0" stopTime="0.00" timeLoss="3.49" rerouteNo="0" devices="tripinfo_0.6 emissions_0.6 fcd_0.6" vType="DEFAULT_VEHTYPE" speedFactor="0.88" vaporized="">
        <emissions CO_abs="1013.837072" CO2_abs="61892.228570" HC_abs="6.053318" PMx_abs="1.010317" NOx_abs="24.815997" fuel_abs="19740.907558" electricity_abs="0"/>
    </tripinfo>
    <tripinfo id="2.2" depart="33.00" departLane="EC_1" departPos="5.10" departSpeed="0.00" departDelay="0.00" arrival="66.00" arrivalLane="CS_3" arrivalPos="86.40" arrivalSpeed="13.95" duration="33.00" routeLength="192.21" waitingTime="9.00" waitingCount="1" stopTime="0.00" timeLoss="19.18" rerouteNo="0" devices="tripinfo_2.2 emissions_2.2 fcd_2.2" vType="DEFAULT_VEHTYPE" speedFactor="1.05" vaporized="">
        <emissions CO_abs="3544.193905" CO2_abs="124306.778924" HC_abs="19.088620" PMx_abs="2.621437" NOx_abs="53.916771" fuel_abs="39648.679627" electricity_abs="0"/>
    </tripinfo>
    <tripinfo id="3.1" depart="18.00" departLane="NC_1" departPos="5.10" departSpeed="0.00" departDelay="0.00" arrival="68.00" arrivalLane="CS_2" arrivalPos="86.40" arrivalSpeed="10.85" duration="50.00" routeLength="208.50" waitingTime="21.00" waitingCount="1" stopTime="0.00" timeLoss="31.61" rerouteNo="0" devices="tripinfo_3.1 emissions_3.1 fcd_3.1" vType="DEFAULT_VEHTYPE" speedFactor="0.86" vaporized="">
        <emissions CO_abs="5512.842979" CO2_abs="145795.766387" HC_abs="28.501335" PMx_abs="3.066488" NOx_abs="63.158010" fuel_abs="46503.644654" electricity_abs="0"/>
    </tripinfo>
    <tripinfo id="3.2" depart="36.00" departLane="NC_1" departPos="5.10" departSpeed="0.00" departDelay="0.00" arrival="69.00" arrivalLane="CS_2" arrivalPos="86.40" arrivalSpeed="13.50" duration="33.00" routeLength="208.50" waitingTime="7.00" waitingCount="1" stopTime="0.00" timeLoss="17.59" rerouteNo="0" devices="tripinfo_3.2 emissions_3.2 fcd_3.2" vType="DEFAULT_VEHTYPE" speedFactor="0.99" vaporized="">
        <emissions CO_abs="3245.899330" CO2_abs="121653.427064" HC_abs="17.598619" PMx_abs="2.367985" NOx_abs="51.473169" fuel_abs="38802.450048" electricity_abs="0"/>
    </tripinfo>
    <tripinfo id="2.3" depart="50.00" departLane="EC_1" departPos="5.10" departSpeed="0.00" departDelay="0.50" arrival="71.00" arrivalLane="CN_1" arrivalPos="100.00" arrivalSpeed="12.29" duration="21.00" routeLength="190.33" waitingTime="0.00" waitingCount="0" stopTime="0.00" timeLoss="4.73" rerouteNo="0" devices="tripinfo_2.3 emissions_2.3 fcd_2.3" vType="DEFAULT_VEHTYPE" speedFactor="0.94" vaporized="">
        <emissions CO_abs="1456.676177" CO2_abs="79843.746159" HC_abs="8.511074" PMx_abs="1.464672" NOx_abs="33.190092" fuel_abs="25466.555889" electricity_abs="0"/>
    </tripinfo>
    <tripinfo id="3.3" depart="54.00" departLane="NC_1" departPos="5.10" departSpeed="0.00" departDelay="0.00" arrival="83.00" arrivalLane="CW_1" arrivalPos="86.40" arrivalSpeed="13.27" duration="29.00" routeLength="190.33" waitingTime="6.00" waitingCount="1" stopTime="0.00" timeLoss="14.10" rerouteNo="0" devices="tripinfo_3.3 emissions_3.3 fcd_3.3" vType="DEFAULT_VEHTYPE" speedFactor="1.02" vaporized="">
        <emissions CO_abs="2776.049289" CO2_abs="110688.008766" HC_abs="15.212414" PMx_abs="2.188513" NOx_abs="46.987635" fuel_abs="35304.781113" electricity_abs="0"/>
    </tripinfo>
    <tripinfo id="1.2" depart="35.00" departLane="SC_1" departPos="5.10" departSpeed="0.00" departDelay="0.00" arrival="85.00" arrivalLane="CN_2" arrivalPos="100.00" arrivalSpeed="15.16" duration="50.00" routeLength="208.50" waitingTime="25.00" waitingCount="1" stopTime="0.00" timeLoss="35.86" rerouteNo="0" devices="tripinfo_1.2 emissions_1.2 fcd_1.2" vType="DEFAULT_VEHTYPE" speedFactor="1.12" vaporized="">
        <emissions CO_abs="6279.540890" CO2_abs="171190.733039" HC_abs="32.608705" PMx_abs="3.734428" NOx_abs="74.908655" fuel_abs="54603.460241" electricity_abs="0"/>
    </tripinfo>
    <tripinfo id="0.7" depart="53.00" departLane="WC_1" departPos="5.10" departSpeed="0.00" departDelay="0.50" arrival="86.00" arrivalLane="CS_1" arrivalPos="86.40" arrivalSpeed="11.96" duration="33.00" routeLength="176.73" waitingTime="11.00" waitingCount="1" stopTime="0.00" timeLoss="18.55" rerouteNo="0" devices="tripinfo_0.7 emissions_0.7 fcd_0.7" vType="DEFAULT_VEHTYPE" speedFactor="0.94" vaporized="">
        <emissions CO_abs="3680.891025" CO2_abs="116687.482096" HC_abs="19.413484" PMx_abs="2.396175" NOx_abs="50.173135" fuel_abs="37218.729918" electricity_abs="0"/>
    </tripinfo>
    <tripinfo id="1.3" depart="53.00" departLane="SC_1" departPos="5.10" departSpeed="0.00" departDelay="0.50" arrival="86.00" arrivalLane="CN_2" arrivalPos="100.00" arrivalSpeed="15.13" duration="33.00" routeLength="208.50" waitingTime="10.00" waitingCount="1" stopTime="0.00" timeLoss="19.94" rerouteNo="0" devices="tripinfo_1.3 emissions_1.3 fcd_1.3" vType="DEFAULT_VEHTYPE" speedFactor="1.16" vaporized="">
        <emissions CO_abs="3855.913806" CO2_abs="136925.773330" HC_abs="20.723054" PMx_abs="2.827191" NOx_abs="58.745552" fuel_abs="43673.651873" electricity_abs="0"/>
    </tripinfo>
    <personinfo id="ped9" depart="28.00" type="DEFAULT_PEDTYPE" speedFactor="1.02">
        <walk depart="28.00" departPos="0.73" arrival="89.00" arrivalPos="45.57" duration="61.00" routeLength="76.36" timeLoss="6.93" maxSpeed="1.41"/>
    </personinfo>
    <tripinfo id="1.4" depart="70.00" departLane="SC_1" departPos="5.10" departSpeed="0.00" departDelay="0.00" arrival="92.00" arrivalLane="CN_2" arrivalPos="100.00" arrivalSpeed="11.11" duration="22.00" routeLength="208.50" waitingTime="0.00" waitingCount="0" stopTime="0.00" timeLoss="3.13" rerouteNo="0" devices="tripinfo_1.4 emissions_1.4 fcd_1.4" vType="DEFAULT_VEHTYPE" speedFactor="0.83" vaporized="">
        <emissions CO_abs="1051.699575" CO2_abs="64093.798292" HC_abs="6.270138" PMx_abs="1.030882" NOx_abs="25.617864" fuel_abs="20443.130262" electricity_abs="0"/>
    </tripinfo>
    <personinfo id="ped8" depart="25.00" type="DEFAULT_PEDTYPE" speedFactor="1.03">
        <walk depart="25.00" departPos="64.03" arrival="95.00" arrivalPos="64.76" duration="70.00" routeLength="89.91" timeLoss="7.42" maxSpeed="1.44"/>
    </personinfo>
    <tripinfo id="0.10" depart="75.00" departLane="WC_1" departPos="5.10" departSpeed="0.00" departDelay="0.00" arrival="95.00" arrivalLane="CS_1" arrivalPos="86.40" arrivalSpeed="11.76" duration="20.00" routeLength="176.73" waitingTime="0.00" waitingCount="0" stopTime="0.00" timeLoss="4.85" rerouteNo="0" devices="tripinfo_0.10 emissions_0.10 fcd_0.10" vType="DEFAULT_VEHTYPE" speedFactor="0.92" vaporized="">
        <emissions CO_abs="1446.792290" CO2_abs="75259.738728" HC_abs="8.365760" PMx_abs="1.438423" NOx_abs="31.749972" fuel_abs="24004.438314" electricity_abs="0"/>
    </tripinfo>
    <tripinfo id="3.4" depart="72.00" departLane="NC_1" departPos="5.10" departSpeed="0.00" departDelay="0.00" arrival="96.00" arrivalLane="CW_1" arrivalPos="86.40" arrivalSpeed="11.19" duration="24.00" routeLength="190.33" waitingTime="1.00" waitingCount="1" stopTime="0.00" timeLoss="7.01" rerouteNo="0" devices="tripinfo_3.4 emissions_3.4 fcd_3.4" vType="DEFAULT_VEHTYPE" speedFactor="0.87" vaporized="">
        <emissions CO_abs="1855.996692" CO2_abs="88517.695879" HC_abs="10.528984" PMx_abs="1.646342" NOx_abs="37.034249" fuel_abs="28233.275172" electricity_abs="0"/>
    </tripinfo>
    <tripinfo id="0.8" depart="60.00" departLane="WC_1" departPos="5.10" departSpeed="0.00" departDelay="0.00" arrival="102.00" arrivalLane="CE_2" arrivalPos="86.40" arrivalSpeed="13.32" duration="42.00" routeLength="194.90" waitingTime="17.00" waitingCount="1" stopTime="0.00" timeLoss="27.97" rerouteNo="0" devices="tripinfo_0.8 emissions_0.8 fcd_0.8" vType="DEFAULT_VEHTYPE" speedFactor="1.01" vaporized="">
        <emissions CO_abs="5069.673197" CO2_abs="148579.551706" HC_abs="26.554001" PMx_abs="3.136199" NOx_abs="64.335080" fuel_abs="47391.211264" electricity_abs="0"/>
    </tripinfo>
    <tripinfo id="0.9" depart="68.00" departLane="WC_1" departPos="5.10" departSpeed="0.00" departDelay="0.50" arrival="105.00" arrivalLane="CN_3" arrivalPos="100.00" arrivalSpeed="12.07" duration="37.00" routeLength="205.81" waitingTime="10.00" waitingCount="1" stopTime="0.00" timeLoss="18.95" rerouteNo="0" devices="tripinfo_0.9 emissions_0.9 fcd_0.9" vType="DEFAULT_VEHTYPE" speedFactor="0.89" vaporized="">
        <emissions CO_abs="3588.916510" CO2_abs="120358.365092" HC_abs="19.161680" PMx_abs="2.372672" NOx_abs="51.143703" fuel_abs="38389.587054" electricity_abs="0"/>
    </tripinfo>
    <personinfo id="ped3" depart="6.00" type="DEFAULT_PEDTYPE" speedFactor="0.97">
        <walk depart="6.00" departPos="9.91" arrival="106.00" arrivalPos="68.21" duration="100.00" routeLength="119.06" timeLoss="11.89" maxSpeed="1.35"/>
    </personinfo>
    <tripinfo id="0.12" depart="90.00" departLane="WC_1" departPos="5.10" departSpeed="0.00" departDelay="0.00" arrival="107.00" arrivalLane="CE_2" arrivalPos="86.40" arrivalSpeed="15.17" duration="17.00" routeLength="194.90" waitingTime="0.00" waitingCount="0" stopTime="0.00" timeLoss="4.65" rerouteNo="0" devices="tripinfo_0.12 emissions_0.12 fcd_0.12" vType="DEFAULT_VEHTYPE" speedFactor="1.18" vaporized="">
        <emissions CO_abs="1157.783247" CO2_abs="71296.969965" HC_abs="6.831319" PMx_abs="1.280947" NOx_abs="29.038213" fuel_abs="22740.467733" electricity_abs="0"/>
    </tripinfo>
    <tripinfo id="2.5" depart="83.00" departLane="EC_1" departPos="5.10" departSpeed="0.00" departDelay="0.50" arrival="113.00" arrivalLane="CN_1" arrivalPos="100.00" arrivalSpeed="15.53" duration="30.00" routeLength="190.33" waitingTime="8.00" waitingCount="1" stopTime="0.00" timeLoss="16.45" rerouteNo="0" devices="tripinfo_2.5 emissions_2.5 fcd_2.5" vType="DEFAULT_VEHTYPE" speedFactor="1.13" vaporized="">
        <emissions CO_abs="3537.151773" CO2_abs="136072.971433" HC_abs="19.339456" PMx_abs="2.824918" NOx_abs="58.612903" fuel_abs="43401.446796" electricity_abs="0"/>
    </tripinfo>
    <tripinfo id="4.0" depart="100.00" departLane="WC_1" departPos="6.60" departSpeed="0.00" departDelay="0.00" arrival="115.00" arrivalLane="CE_2" arrivalPos="86.40" arrivalSpeed="19.54" duration="15.00" routeLength="193.40" waitingTime="0.00" waitingCount="0" stopTime="0.00" timeLoss="5.54" rerouteNo="0" devices="tripinfo_4.0 emissions_4.0 bluelight_4.0 fcd_4.0" vType="rescue" speedFactor="1.50" vaporized="">
        <emissions CO_abs="5660.171400" CO2_abs="102071.673517" HC_abs="220.761714" PMx_abs="26.971236" NOx_abs="0" fuel_abs="32343.467802" electricity_abs="0"/>
        <bluelight/>
    </tripinfo>
    <personinfo id="ped26" depart="70.00" type="DEFAULT_PEDTYPE" speedFactor="1.10">
        <walk depart="70.00" departPos="45.75" arrival="117.00" arrivalPos="18.37" duration="47.00" routeLength="63.27" timeLoss="5.53" maxSpeed="1.53"/>
    </personinfo>
    <personinfo id="ped31" depart="79.00" type="DEFAULT_PEDTYPE" speedFactor="0.94">
        <walk depart="79.00" departPos="73.64" arrival="119.00" arrivalPos="6.77" duration="40.00" routeLength="46.73" timeLoss="4.26" maxSpeed="1.31"/>
    </personinfo>
    <tripinfo id="0.11" depart="83.00" departLane="WC_1" departPos="5.10" departSpeed="0.00" departDelay="0.50" arrival="119.00" arrivalLane="CS_1" arrivalPos="86.40" arrivalSpeed="12.67" duration="36.00" routeLength="176.73" waitingTime="14.00" waitingCount="1" stopTime="0.00" timeLoss="21.76" rerouteNo="0" devices="tripinfo_0.11 emissions_0.11 fcd_0.11" vType="DEFAULT_VEHTYPE" speedFactor="0.95" vaporized="">
        <emissions CO_abs="4199.888335" CO2_abs="125735.005615" HC_abs="22.058067" PMx_abs="2.665061" NOx_abs="54.627661" fuel_abs="40104.594234" electricity_abs="0"/>
    </tripinfo>
    <personinfo id="ped29" depart="73.00" type="DEFAULT_PEDTYPE" speedFactor="1.00">
        <walk depart="73.00" departPos="97.45" arrival="120.00" arrivalPos="32.75" duration="47.00" routeLength="56.51" timeLoss="6.49" maxSpeed="1.39"/>
    </personinfo>
    <tripinfo id="0.13" depart="98.00" departLane="WC_1" departPos="5.10" departSpeed="0.00" departDelay="0.50" arrival="120.00" arrivalLane="CN_3" arrivalPos="100.00" arrivalSpeed="12.92" duration="22.00" routeLength="205.81" waitingTime="0.00" waitingCount="0" stopTime="0.00" timeLoss="6.02" rerouteNo="0" devices="tripinfo_0.13 emissions_0.13 fcd_0.13" vType="DEFAULT_VEHTYPE" speedFactor="1.01" vaporized="">
        <emissions CO_abs="1641.338095" CO2_abs="90917.141840" HC_abs="9.578482" PMx_abs="1.775969" NOx_abs="38.458545" fuel_abs="28998.327240" electricity_abs="0"/>
    </tripinfo>
    <personinfo id="ped1" depart="3.00" type="DEFAULT_PEDTYPE" speedFactor="0.91">
        <walk depart="3.00" departPos="72.31" arrival="122.00" arrivalPos="27.94" duration="119.00" routeLength="135.01" timeLoss="12.71" maxSpeed="1.27"/>
    </personinfo>
    <personinfo id="ped13" depart="43.00" type="DEFAULT_PEDTYPE" speedFactor="1.02">
        <walk depart="43.00" departPos="81.39" arrival="123.00" arrivalPos="47.15" duration="80.00" routeLength="78.74" timeLoss="24.53" maxSpeed="1.42"/>
    </personinfo>
    <tripinfo id="3.5" depart="90.00" departLane="NC_1" departPos="5.10" departSpeed="0.00" departDelay="0.00" arrival="123.00" arrivalLane="CE_3" arrivalPos="86.40" arrivalSpeed="14.83" duration="33.00" routeLength="205.81" waitingTime="6.00" waitingCount="2" stopTime="0.00" timeLoss="19.48" rerouteNo="0" devices="tripinfo_3.5 emissions_3.5 fcd_3.5" vType="DEFAULT_VEHTYPE" speedFactor="1.15" vaporized="">
        <emissions CO_abs="3845.209092" CO2_abs="142355.562554" HC_abs="20.855064" PMx_abs="2.999802" NOx_abs="61.684479" fuel_abs="45405.347332" electricity_abs="0"/>
    </tripinfo>
    <tripinfo id="1.6" depart="105.00" departLane="SC_1" departPos="5.10" departSpeed="0.00" departDelay="0.00" arrival="124.00" arrivalLane="CE_1" arrivalPos="86.40" arrivalSpeed="13.14" duration="19.00" routeLength="176.73" waitingTime="0.00" waitingCount="0" stopTime="0.00" timeLoss="5.54" rerouteNo="0" devices="tripinfo_1.6 emissions_1.6 fcd_1.6" vType="DEFAULT_VEHTYPE" speedFactor="1.02" vaporized="">
        <emissions CO_abs="1537.011513" CO2_abs="82284.545872" HC_abs="8.951918" PMx_abs="1.609386" NOx_abs="34.887654" fuel_abs="26244.967528" electricity_abs="0"/>
    </tripinfo>
    <tripinfo id="0.14" depart="105.00" departLane="WC_1" departPos="5.10" departSpeed="0.00" departDelay="0.00" arrival="125.00" arrivalLane="CS_1" arrivalPos="86.40" arrivalSpeed="13.61" duration="20.00" routeLength="176.73" waitingTime="0.00" waitingCount="0" stopTime="0.00" timeLoss="5.62" rerouteNo="0" devices="tripinfo_0.14 emissions_0.14 fcd_0.14" vType="DEFAULT_VEHTYPE" speedFactor="0.99" vaporized="">
        <emissions CO_abs="1567.136631" CO2_abs="83629.134992" HC_abs="9.128342" PMx_abs="1.679436" NOx_abs="35.803614" fuel_abs="26673.778014" electricity_abs="0"/>
    </tripinfo>
    <personinfo id="ped15" depart="46.00" type="DEFAULT_PEDTYPE" speedFactor="0.92">
        <walk depart="46.00" departPos="38.62" arrival="128.00" arrivalPos="22.83" duration="82.00" routeLength="91.82" timeLoss="10.25" maxSpeed="1.28"/>
    </personinfo>
    <personinfo id="ped6" depart="10.00" type="DEFAULT_PEDTYPE" speedFactor="1.03">
        <walk depart="10.00" departPos="81.28" arrival="128.00" arrivalPos="20.60" duration="118.00" routeLength="151.32" timeLoss="12.48" maxSpeed="1.43"/>
    </personinfo>
    <tripinfo id="3.6" depart="108.00" departLane="NC_1" departPos="5.10" departSpeed="0.00" departDelay="0.00" arrival="129.00" arrivalLane="CW_1" arrivalPos="86.40" arrivalSpeed="13.36" duration="21.00" routeLength="190.33" waitingTime="0.00" waitingCount="0" stopTime="0.00" timeLoss="5.10" rerouteNo="0" devices="tripinfo_3.6 emissions_3.6 fcd_3.6" vType="DEFAULT_VEHTYPE" speedFactor="0.97" vaporized="">
        <emissions CO_abs="1520.937149" CO2_abs="82515.084336" HC_abs="8.883301" PMx_abs="1.608141" NOx_abs="34.975196" fuel_abs="26318.490142" electricity_abs="0"/>
    </tripinfo>
    <personinfo id="ped33" depart="87.00" type="DEFAULT_PEDTYPE" speedFactor="1.06">
        <walk depart="87.00" departPos="77.74" arrival="130.00" arrivalPos="65.80" duration="43.00" routeLength="53.65" timeLoss="6.59" maxSpeed="1.47"/>
    </personinfo>
    <personinfo id="ped21" depart="61.00" type="DEFAULT_PEDTYPE" speedFactor="0.97">
        <walk depart="61.00" departPos="33.26" arrival="131.00" arrivalPos="41.39" duration="70.00" routeLength="82.52" timeLoss="8.64" maxSpeed="1.34"/>
    </personinfo>
    <tripinfo id="2.6" depart="99.00" departLane="EC_1" departPos="5.10" departSpeed="0.00" departDelay="0.00" arrival="137.00" arrivalLane="CW_2" arrivalPos="86.40" arrivalSpeed="16.04" duration="38.00" routeLength="194.90" waitingTime="14.00" waitingCount="1" stopTime="0.00" timeLoss="25.48" rerouteNo="0" devices="tripinfo_2.6 emissions_2.6 fcd_2.6" vType="DEFAULT_VEHTYPE" speedFactor="1.17" vaporized="">
        <emissions CO_abs="4704.407068" CO2_abs="150980.599887" HC_abs="25.008569" PMx_abs="3.257165" NOx_abs="65.828331" fuel_abs="48156.697275" electricity_abs="0"/>
    </tripinfo>
    <tripinfo id="2.4" depart="66.00" departLane="EC_1" departPos="5.10" departSpeed="0.00" departDelay="0.00" arrival="139.00" arrivalLane="CS_3" arrivalPos="86.40" arrivalSpeed="12.44" duration="73.00" routeLength="192.21" waitingTime="48.00" waitingCount="1" stopTime="0.00" timeLoss="57.98" rerouteNo="0" devices="tripinfo_2.4 emissions_2.4 fcd_2.4" vType="DEFAULT_VEHTYPE" speedFactor="0.97" vaporized="">
        <emissions CO_abs="10123.098818" CO2_abs="230055.462747" HC_abs="51.466682" PMx_abs="5.195257" NOx_abs="101.918354" fuel_abs="73379.973805" electricity_abs="0"/>
    </tripinfo>
    <personinfo id="ped20" depart="60.00" type="DEFAULT_PEDTYPE" speedFactor="1.06">
        <walk depart="60.00" departPos="41.15" arrival="141.00" arrivalPos="43.80" duration="81.00" routeLength="104.95" timeLoss="10.05" maxSpeed="1.48"/>
    </personinfo>
    <tripinfo id="2.7" depart="116.00" departLane="EC_1" departPos="5.10" departSpeed="0.00" departDelay="0.50" arrival="141.00" arrivalLane="CN_1" arrivalPos="100.00" arrivalSpeed="14.93" duration="25.00" routeLength="190.33" waitingTime="4.00" waitingCount="1" stopTime="0.00" timeLoss="11.35" rerouteNo="0" devices="tripinfo_2.7 emissions_2.7 fcd_2.7" vType="DEFAULT_VEHTYPE" speedFactor="1.10" vaporized="">
        <emissions CO_abs="2725.456064" CO2_abs="117092.236438" HC_abs="15.197360" PMx_abs="2.413205" NOx_abs="50.415221" fuel_abs="37347.216501" electricity_abs="0"/>
    </tripinfo>
    <personinfo id="ped27" depart="71.00" type="DEFAULT_PEDTYPE" speedFactor="1.10">
        <walk depart="71.00" departPos="20.79" arrival="148.00" arrivalPos="92.58" duration="77.00" routeLength="62.43" timeLoss="36.00" maxSpeed="1.52"/>
    </personinfo>
    <personinfo id="ped19" depart="57.00" type="DEFAULT_PEDTYPE" speedFactor="1.12">
        <walk depart="57.00" departPos="68.69" arrival="149.00" arrivalPos="3.42" duration="92.00" routeLength="125.08" timeLoss="11.71" maxSpeed="1.56"/>
    </personinfo>
    <personinfo id="ped24" depart="65.00" type="DEFAULT_PEDTYPE" speedFactor="1.06">
        <walk depart="65.00" departPos="63.88" arrival="150.00" arrivalPos="91.68" duration="85.00" routeLength="55.22" timeLoss="47.66" maxSpeed="1.48"/>
    </personinfo>
    <tripinfo id="1.5" depart="88.00" departLane="SC_1" departPos="5.10" departSpeed="0.00" departDelay="0.50" arrival="157.00" arrivalLane="CN_2" arrivalPos="100.00" arrivalSpeed="12.91" duration="69.00" routeLength="208.50" waitingTime="44.00" waitingCount="1" stopTime="0.00" timeLoss="52.80" rerouteNo="0" devices="tripinfo_1.5 emissions_1.5 fcd_1.5" vType="DEFAULT_VEHTYPE" speedFactor="0.93" vaporized="">
        <emissions CO_abs="9209.443741" CO2_abs="211328.618236" HC_abs="46.862672" PMx_abs="4.698088" NOx_abs="93.017870" fuel_abs="67406.777286" electricity_abs="0"/>
    </tripinfo>
    <tripinfo id="1.7" depart="123.00" departLane="SC_1" departPos="5.10" departSpeed="0.00" departDelay="0.50" arrival="159.00" arrivalLane="CN_2" arrivalPos="100.00" arrivalSpeed="13.02" duration="36.00" routeLength="208.50" waitingTime="11.00" waitingCount="1" stopTime="0.00" timeLoss="21.01" rerouteNo="0" devices="tripinfo_1.7 emissions_1.7 fcd_1.7" vType="DEFAULT_VEHTYPE" speedFactor="1.03" vaporized="">
        <emissions CO_abs="3769.091386" CO2_abs="125351.894885" HC_abs="20.128906" PMx_abs="2.634620" NOx_abs="54.373106" fuel_abs="39982.157298" electricity_abs="0"/>
    </tripinfo>
    <tripinfo id="1.8" depart="140.00" departLane="SC_1" departPos="5.10" departSpeed="0.00" departDelay="0.00" arrival="161.00" arrivalLane="CN_2" arrivalPos="100.00" arrivalSpeed="13.96" duration="21.00" routeLength="208.50" waitingTime="0.00" waitingCount="0" stopTime="0.00" timeLoss="6.39" rerouteNo="0" devices="tripinfo_1.8 emissions_1.8 fcd_1.8" vType="DEFAULT_VEHTYPE" speedFactor="1.09" vaporized="">
        <emissions CO_abs="1507.165043" CO2_abs="86597.152847" HC_abs="8.916184" PMx_abs="1.655649" NOx_abs="36.352439" fuel_abs="27620.472031" electricity_abs="0"/>
    </tripinfo>
    <personinfo id="ped38" depart="104.00" type="DEFAULT_PEDTYPE" speedFactor="1.04">
        <walk depart="104.00" departPos="23.71" arrival="166.00" arrivalPos="37.13" duration="62.00" routeLength="77.22" timeLoss="8.41" maxSpeed="1.44"/>
    </personinfo>