<?xml version="1.0" encoding="UTF-8"?>

<!-- generated on 2023-12-02 16:00:14 by Eclipse SUMO GUI Version 1.15.0
<configuration xmlns:xsi="http://www.w3.org/2001/XMLSchema-instance" xsi:noNamespaceSchemaLocation="http://sumo.dlr.de/xsd/sumoConfiguration.xsd">

    <input>
        <net-file value="C:\Users\30582\Desktop\LYL\信号灯调度\test_救护车2\std_crossroad.net.xml"/>
        <route-files value="C:\Users\30582\Desktop\LYL\信号灯调度\test_救护车2\Routes.rou.xml,C:\Users\30582\Desktop\LYL\信号灯调度\test_救护车2\std_crossroad.ped.xml"/>
        <additional-files value="C:\Users\30582\Desktop\LYL\信号灯调度\test_救护车2\std_crossroad.det.xml,C:\Users\30582\Desktop\LYL\信号灯调度\test_救护车2\emissionOut.xml"/>
    </input>

    <output>
        <write-license value="true"/>
        <emission-output value="C:\Users\30582\Desktop\LYL\信号灯调度\test_救护车2\true"/>
        <fcd-output value="C:\Users\30582\Desktop\LYL\信号灯调度\test_救护车2\false"/>
        <tripinfo-output value="C:\Users\30582\Desktop\LYL\信号灯调度\test_救护车2\tripinfos.xml"/>
    </output>

    <report>
        <verbose value="true"/>
        <no-step-log value="true"/>
    </report>

    <gui_only>
        <gui-settings-file value="C:\Users\30582\Desktop\LYL\信号灯调度\test_救护车2\viewsettings.xml"/>
    </gui_only>

</configuration>
-->

<fcd-export xmlns:xsi="http://www.w3.org/2001/XMLSchema-instance" xsi:noNamespaceSchemaLocation="http://sumo.dlr.de/xsd/fcd_file.xsd">
    <timestep time="0.00">
        <vehicle id="0.0" x="-94.90" y="-8.00" angle="90.00" type="DEFAULT_VEHTYPE" speed="0.00" pos="5.10" lane="WC_1" slope="0.00"/>
        <vehicle id="1.0" x="8.00" y="-94.90" angle="0.00" type="DEFAULT_VEHTYPE" speed="0.00" pos="5.10" lane="SC_1" slope="0.00"/>
        <vehicle id="2.0" x="94.90" y="8.00" angle="270.00" type="DEFAULT_VEHTYPE" speed="0.00" pos="5.10" lane="EC_1" slope="0.00"/>
        <vehicle id="3.0" x="-8.00" y="95.59" angle="180.00" type="DEFAULT_VEHTYPE" speed="0.00" pos="5.10" lane="NC_1" slope="0.00"/>
    </timestep>
    <timestep time="1.00">
        <vehicle id="0.0" x="-93.35" y="-8.00" angle="90.00" type="DEFAULT_VEHTYPE" speed="1.55" pos="6.65" lane="WC_1" slope="0.00"/>
        <vehicle id="1.0" x="4.80" y="-92.69" angle="0.00" type="DEFAULT_VEHTYPE" speed="2.21" pos="7.31" lane="SC_2" slope="0.00"/>
        <vehicle id="2.0" x="92.76" y="8.00" angle="270.00" type="DEFAULT_VEHTYPE" speed="2.14" pos="7.24" lane="EC_1" slope="0.00"/>
        <vehicle id="3.0" x="-8.00" y="94.15" angle="180.00" type="DEFAULT_VEHTYPE" speed="1.67" pos="6.77" lane="NC_1" slope="0.00"/>
        <person id="ped0" x="-41.85" y="-11.20" angle="90.00" speed="0.00" pos="58.15" edge="WC" slope="0.00"/>
    </timestep>
    <timestep time="2.00">
        <vehicle id="0.0" x="-90.16" y="-8.00" angle="90.00" type="DEFAULT_VEHTYPE" speed="3.19" pos="9.84" lane="WC_1" slope="0.00"/>
        <vehicle id="1.0" x="1.60" y="-88.11" angle="0.00" type="DEFAULT_VEHTYPE" speed="4.58" pos="11.89" lane="SC_3" slope="0.00"/>
        <vehicle id="2.0" x="89.21" y="8.00" angle="270.00" type="DEFAULT_VEHTYPE" speed="3.55" pos="10.79" lane="EC_1" slope="0.00"/>
        <vehicle id="3.0" x="-8.00" y="91.08" angle="180.00" type="DEFAULT_VEHTYPE" speed="3.56" pos="10.32" lane="NC_1" slope="0.00"/>
        <person id="ped0" x="-40.90" y="-11.20" angle="90.00" speed="0.95" pos="59.10" edge="WC" slope="0.00"/>
    </timestep>
    <timestep time="3.00">
        <vehicle id="0.0" x="-85.09" y="-8.00" angle="90.00" type="DEFAULT_VEHTYPE" speed="5.06" pos="14.91" lane="WC_1" slope="0.00"/>
        <vehicle id="1.0" x="1.60" y="-81.55" angle="0.00" type="DEFAULT_VEHTYPE" speed="6.56" pos="18.45" lane="SC_3" slope="0.00"/>
        <vehicle id="2.0" x="84.12" y="8.00" angle="270.00" type="DEFAULT_VEHTYPE" speed="5.09" pos="15.88" lane="EC_1" slope="0.00"/>
        <vehicle id="3.0" x="-4.80" y="86.41" angle="180.00" type="DEFAULT_VEHTYPE" speed="5.41" pos="15.73" lane="NC_2" slope="0.00"/>
        <person id="ped1" x="9.92" y="76.08" angle="180.00" speed="0.00" pos="72.31" edge="CN" slope="0.00"/>
        <person id="ped0" x="-39.91" y="-11.20" angle="90.00" speed="0.99" pos="60.09" edge="WC" slope="0.00"/>
    </timestep>
    <timestep time="4.00">
        <vehicle id="0.0" x="-78.52" y="-8.00" angle="90.00" type="DEFAULT_VEHTYPE" speed="6.58" pos="21.48" lane="WC_1" slope="0.00"/>
        <vehicle id="1.0" x="1.60" y="-73.31" angle="0.00" type="DEFAULT_VEHTYPE" speed="8.25" pos="26.69" lane="SC_3" slope="0.00"/>
        <vehicle id="2.0" x="77.41" y="8.00" angle="270.00" type="DEFAULT_VEHTYPE" speed="6.71" pos="22.59" lane="EC_1" slope="0.00"/>
        <vehicle id="3.0" x="-4.80" y="79.92" angle="180.00" type="DEFAULT_VEHTYPE" speed="7.51" pos="23.24" lane="NC_2" slope="0.00"/>
        <person id="ped2" x="9.92" y="27.22" angle="180.00" speed="0.00" pos="15.76" edge="CN" slope="0.00"/>
        <person id="ped1" x="9.92" y="75.09" angle="180.00" speed="1.15" pos="71.17" edge="CN" slope="0.00"/>
        <person id="ped0" x="-38.77" y="-11.20" angle="90.00" speed="1.14" pos="61.23" edge="WC" slope="0.00"/>
    </timestep>
    <timestep time="5.00">
        <vehicle id="0.0" x="-69.89" y="-8.00" angle="90.00" type="DEFAULT_VEHTYPE" speed="8.62" pos="30.11" lane="WC_1" slope="0.00"/>
        <vehicle id="1.0" x="1.60" y="-63.73" angle="0.00" type="DEFAULT_VEHTYPE" speed="9.58" pos="36.27" lane="SC_3" slope="0.00"/>
        <vehicle id="2.0" x="68.75" y="8.00" angle="270.00" type="DEFAULT_VEHTYPE" speed="8.66" pos="31.25" lane="EC_1" slope="0.00"/>
        <vehicle id="3.0" x="-4.80" y="72.04" angle="180.00" type="DEFAULT_VEHTYPE" speed="9.12" pos="32.36" lane="NC_2" slope="0.00"/>
        <person id="ped2" x="9.92" y="26.00" angle="180.00" speed="1.41" pos="14.35" edge="CN" slope="0.00"/>
        <person id="ped1" x="9.92" y="74.16" angle="180.00" speed="1.08" pos="70.09" edge="CN" slope="0.00"/>
        <person id="ped0" x="-37.75" y="-11.20" angle="90.00" speed="1.02" pos="62.25" edge="WC" slope="0.00"/>
    </timestep>
    <timestep time="6.00">
        <vehicle id="0.0" x="-59.15" y="-8.00" angle="90.00" type="DEFAULT_VEHTYPE" speed="10.74" pos="40.85" lane="WC_1" slope="0.00"/>
        <vehicle id="1.0" x="1.60" y="-51.64" angle="0.00" type="DEFAULT_VEHTYPE" speed="12.09" pos="48.36" lane="SC_3" slope="0.00"/>
        <vehicle id="2.0" x="57.97" y="8.00" angle="270.00" type="DEFAULT_VEHTYPE" speed="10.78" pos="42.03" lane="EC_1" slope="0.00"/>
        <vehicle id="3.0" x="-4.80" y="62.13" angle="180.00" type="DEFAULT_VEHTYPE" speed="11.47" pos="43.83" lane="NC_2" slope="0.00"/>
        <person id="ped2" x="9.92" y="24.91" angle="180.00" speed="1.26" pos="13.09" edge="CN" slope="0.00"/>
        <person id="ped1" x="9.92" y="73.22" angle="180.00" speed="1.08" pos="69.01" edge="CN" slope="0.00"/>
        <person id="ped3" x="90.09" y="11.20" angle="270.00" speed="0.00" pos="9.91" edge="EC" slope="0.00"/>
        <person id="ped0" x="-36.66" y="-11.20" angle="90.00" speed="1.10" pos="63.34" edge="WC" slope="0.00"/>
    </timestep>
    <timestep time="7.00">
        <vehicle id="0.0" x="-47.02" y="-8.00" angle="90.00" type="DEFAULT_VEHTYPE" speed="12.13" pos="52.98" lane="WC_1" slope="0.00"/>
        <vehicle id="1.0" x="1.60" y="-39.14" angle="0.00" type="DEFAULT_VEHTYPE" speed="12.50" pos="60.86" lane="SC_3" slope="0.00"/>
        <vehicle id="2.0" x="45.50" y="8.00" angle="270.00" type="DEFAULT_VEHTYPE" speed="12.47" pos="54.50" lane="EC_1" slope="0.00"/>
        <vehicle id="3.0" x="-4.80" y="50.27" angle="180.00" type="DEFAULT_VEHTYPE" speed="13.73" pos="57.56" lane="NC_2" slope="0.00"/>
        <person id="ped2" x="9.92" y="23.80" angle="180.00" speed="1.29" pos="11.80" edge="CN" slope="0.00"/>
        <person id="ped1" x="9.92" y="72.22" angle="180.00" speed="1.16" pos="67.85" edge="CN" slope="0.00"/>
        <person id="ped3" x="88.74" y="11.20" angle="270.00" speed="1.35" pos="11.26" edge="EC" slope="0.00"/>
        <person id="ped4" x="11.20" y="-83.12" angle="0.00" speed="0.00" pos="16.88" edge="SC" slope="0.00"/>
        <person id="ped0" x="-35.66" y="-11.20" angle="90.00" speed="1.00" pos="64.34" edge="WC" slope="0.00"/>
    </timestep>
    <timestep time="8.00">
        <vehicle id="0.0" x="-32.86" y="-8.00" angle="90.00" type="DEFAULT_VEHTYPE" speed="14.16" pos="67.14" lane="WC_1" slope="0.00"/>
        <vehicle id="0.1" x="-94.90" y="-8.00" angle="90.00" type="DEFAULT_VEHTYPE" speed="0.00" pos="5.10" lane="WC_1" slope="0.00"/>
        <vehicle id="1.0" x="1.60" y="-27.55" angle="0.00" type="DEFAULT_VEHTYPE" speed="11.59" pos="72.45" lane="SC_3" slope="0.00"/>
        <vehicle id="2.0" x="32.39" y="8.00" angle="270.00" type="DEFAULT_VEHTYPE" speed="13.11" pos="67.61" lane="EC_1" slope="0.00"/>
        <vehicle id="3.0" x="-4.80" y="37.94" angle="180.00" type="DEFAULT_VEHTYPE" speed="14.27" pos="71.83" lane="NC_2" slope="0.00"/>
        <person id="ped2" x="9.92" y="22.79" angle="180.00" speed="1.17" pos="10.63" edge="CN" slope="0.00"/>
        <person id="ped1" x="9.92" y="71.20" angle="180.00" speed="1.19" pos="66.66" edge="CN" slope="0.00"/>
        <person id="ped3" x="87.55" y="11.20" angle="270.00" speed="1.20" pos="12.45" edge="EC" slope="0.00"/>
        <person id="ped4" x="11.20" y="-81.73" angle="0.00" speed="1.39" pos="18.27" edge="SC" slope="0.00"/>
        <person id="ped0" x="-34.52" y="-11.20" angle="90.00" speed="1.14" pos="65.48" edge="WC" slope="0.00"/>
    </timestep>
    <timestep time="9.00">
        <vehicle id="0.0" x="-21.35" y="-8.00" angle="90.00" type="DEFAULT_VEHTYPE" speed="11.51" pos="78.65" lane="WC_1" slope="0.00"/>
        <vehicle id="0.1" x="-93.54" y="-4.80" angle="90.00" type="DEFAULT_VEHTYPE" speed="1.36" pos="6.46" lane="WC_2" slope="0.00"/>
        <vehicle id="1.0" x="1.60" y="-19.56" angle="0.00" type="DEFAULT_VEHTYPE" speed="7.98" pos="80.44" lane="SC_3" slope="0.00"/>
        <vehicle id="2.0" x="21.02" y="8.00" angle="270.00" type="DEFAULT_VEHTYPE" speed="11.37" pos="78.98" lane="EC_1" slope="0.00"/>
        <vehicle id="3.0" x="-4.80" y="26.33" angle="180.00" type="DEFAULT_VEHTYPE" speed="13.44" pos="85.26" lane="NC_2" slope="0.00"/>
        <person id="ped2" x="9.92" y="21.63" angle="180.00" speed="1.33" pos="9.30" edge="CN" slope="0.00"/>
        <person id="ped1" x="9.92" y="70.24" angle="180.00" speed="1.11" pos="65.55" edge="CN" slope="0.00"/>
        <person id="ped3" x="86.38" y="11.20" angle="270.00" speed="1.17" pos="13.62" edge="EC" slope="0.00"/>
        <person id="ped4" x="11.20" y="-80.28" angle="0.00" speed="1.45" pos="19.72" edge="SC" slope="0.00"/>
        <person id="ped0" x="-33.48" y="-11.20" angle="90.00" speed="1.04" pos="66.52" edge="WC" slope="0.00"/>
        <person id="ped5" x="-26.49" y="-11.20" angle="90.00" speed="0.00" pos="73.51" edge="WC" slope="0.00"/>
    </timestep>
    <timestep time="10.00">
        <vehicle id="0.0" x="-13.72" y="-8.00" angle="90.00" type="DEFAULT_VEHTYPE" speed="7.63" pos="86.28" lane="WC_1" slope="0.00"/>
        <vehicle id="0.1" x="-90.43" y="-1.60" angle="90.00" type="DEFAULT_VEHTYPE" speed="3.11" pos="9.57" lane="WC_3" slope="0.00"/>
        <vehicle id="1.0" x="1.60" y="-15.68" angle="0.00" type="DEFAULT_VEHTYPE" speed="3.88" pos="84.32" lane="SC_3" slope="0.00"/>
        <vehicle id="2.0" x="14.16" y="8.00" angle="270.00" type="DEFAULT_VEHTYPE" speed="6.87" pos="85.84" lane="EC_1" slope="0.00"/>
        <vehicle id="3.0" x="-4.80" y="18.61" angle="180.00" type="DEFAULT_VEHTYPE" speed="8.94" pos="94.20" lane="NC_2" slope="0.00"/>
        <person id="ped6" x="94.88" y="-9.92" angle="270.00" speed="0.00" pos="81.28" edge="CE" slope="0.00"/>
        <person id="ped2" x="9.92" y="20.54" angle="180.00" speed="1.27" pos="8.03" edge="CN" slope="0.00"/>
        <person id="ped1" x="9.92" y="69.19" angle="180.00" speed="1.21" pos="64.34" edge="CN" slope="0.00"/>
        <person id="ped3" x="85.28" y="11.20" angle="270.00" speed="1.10" pos="14.72" edge="EC" slope="0.00"/>
        <person id="ped4" x="11.20" y="-79.06" angle="0.00" speed="1.22" pos="20.94" edge="SC" slope="0.00"/>
        <person id="ped0" x="-32.42" y="-11.20" angle="90.00" speed="1.06" pos="67.58" edge="WC" slope="0.00"/>
        <person id="ped5" x="-25.37" y="-11.20" angle="90.00" speed="1.13" pos="74.63" edge="WC" slope="0.00"/>
    </timestep>
    <timestep time="11.00">
        <vehicle id="0.0" x="-9.76" y="-9.18" angle="104.00" type="DEFAULT_VEHTYPE" speed="4.22" pos="4.09" lane=":C_9_0" slope="0.00"/>
        <vehicle id="0.1" x="-85.07" y="-1.60" angle="90.00" type="DEFAULT_VEHTYPE" speed="5.36" pos="14.93" lane="WC_3" slope="0.00"/>
        <vehicle id="1.0" x="1.60" y="-14.83" angle="0.00" type="DEFAULT_VEHTYPE" speed="0.85" pos="85.17" lane="SC_3" slope="0.00"/>
        <vehicle id="2.0" x="10.70" y="8.62" angle="277.19" type="DEFAULT_VEHTYPE" speed="3.55" pos="3.00" lane=":C_3_0" slope="0.00"/>
        <vehicle id="3.0" x="-4.80" y="14.78" angle="180.00" type="DEFAULT_VEHTYPE" speed="4.44" pos="98.64" lane="NC_2" slope="0.00"/>
        <person id="ped6" x="93.72" y="-9.92" angle="270.00" speed="1.16" pos="80.12" edge="CE" slope="0.00"/>
        <person id="ped2" x="9.92" y="19.32" angle="180.00" speed="1.41" pos="6.62" edge="CN" slope="0.00"/>
        <person id="ped1" x="9.92" y="68.25" angle="180.00" speed="1.10" pos="63.25" edge="CN" slope="0.00"/>
        <person id="ped3" x="83.94" y="11.20" angle="270.00" speed="1.34" pos="16.06" edge="EC" slope="0.00"/>
        <person id="ped4" x="11.20" y="-77.68" angle="0.00" speed="1.38" pos="22.32" edge="SC" slope="0.00"/>
        <person id="ped0" x="-31.30" y="-11.20" angle="90.00" speed="1.12" pos="68.70" edge="WC" slope="0.00"/>
        <person id="ped5" x="-24.21" y="-11.20" angle="90.00" speed="1.16" pos="75.79" edge="WC" slope="0.00"/>
    </timestep>
    <timestep time="12.00">
        <vehicle id="0.0" x="-8.13" y="-12.70" angle="148.44" type="DEFAULT_VEHTYPE" speed="4.03" pos="3.37" lane=":C_18_0" slope="0.00"/>
        <vehicle id="0.1" x="-77.23" y="-1.60" angle="90.00" type="DEFAULT_VEHTYPE" speed="7.84" pos="22.77" lane="WC_3" slope="0.00"/>
        <vehicle id="1.0" x="1.60" y="-14.66" angle="0.00" type="DEFAULT_VEHTYPE" speed="0.17" pos="85.34" lane="SC_3" slope="0.00"/>
        <vehicle id="2.0" x="8.28" y="11.64" angle="315.45" type="DEFAULT_VEHTYPE" speed="4.05" pos="2.30" lane=":C_14_0" slope="0.00"/>
        <vehicle id="3.0" x="-4.80" y="14.56" angle="180.00" type="DEFAULT_VEHTYPE" speed="0.25" pos="98.89" lane="NC_2" slope="0.00"/>
        <person id="ped6" x="92.56" y="-9.92" angle="270.00" speed="1.16" pos="78.96" edge="CE" slope="0.00"/>
        <person id="ped2" x="9.92" y="18.16" angle="180.00" speed="1.34" pos="5.28" edge="CN" slope="0.00"/>
        <person id="ped1" x="9.92" y="67.20" angle="180.00" speed="1.21" pos="62.03" edge="CN" slope="0.00"/>
        <person id="ped3" x="82.68" y="11.20" angle="270.00" speed="1.26" pos="17.32" edge="EC" slope="0.00"/>
        <person id="ped4" x="11.20" y="-76.25" angle="0.00" speed="1.43" pos="23.75" edge="SC" slope="0.00"/>
        <person id="ped0" x="-30.24" y="-11.20" angle="90.00" speed="1.06" pos="69.76" edge="WC" slope="0.00"/>
        <person id="ped5" x="-22.88" y="-11.20" angle="90.00" speed="1.33" pos="77.12" edge="WC" slope="0.00"/>
    </timestep>
    <timestep time="13.00">
        <vehicle id="0.0" x="-8.00" y="-19.04" angle="180.00" type="DEFAULT_VEHTYPE" speed="6.35" pos="5.44" lane="CS_1" slope="0.00"/>
        <vehicle id="0.1" x="-68.06" y="-1.60" angle="90.00" type="DEFAULT_VEHTYPE" speed="9.17" pos="31.94" lane="WC_3" slope="0.00"/>
        <vehicle id="1.0" x="1.60" y="-14.62" angle="0.00" type="DEFAULT_VEHTYPE" speed="0.05" pos="85.38" lane="SC_3" slope="0.00"/>
        <vehicle id="2.0" x="8.00" y="17.15" angle="358.38" type="DEFAULT_VEHTYPE" speed="6.10" pos="4.11" lane="CN_1" slope="0.00"/>
        <vehicle id="3.0" x="-4.80" y="14.47" angle="180.00" type="DEFAULT_VEHTYPE" speed="0.10" pos="98.99" lane="NC_2" slope="0.00"/>
        <person id="ped6" x="91.15" y="-9.92" angle="270.00" speed="1.41" pos="77.55" edge="CE" slope="0.00"/>
        <person id="ped2" x="9.92" y="17.10" angle="180.00" speed="1.23" pos="4.05" edge="CN" slope="0.00"/>
        <person id="ped1" x="9.92" y="66.26" angle="180.00" speed="1.09" pos="60.94" edge="CN" slope="0.00"/>
        <person id="ped3" x="81.37" y="11.20" angle="270.00" speed="1.31" pos="18.63" edge="EC" slope="0.00"/>
        <person id="ped4" x="11.20" y="-74.95" angle="0.00" speed="1.30" pos="25.05" edge="SC" slope="0.00"/>
        <person id="ped0" x="-29.27" y="-11.20" angle="90.00" speed="0.97" pos="70.73" edge="WC" slope="0.00"/>
        <person id="ped5" x="-21.57" y="-11.20" angle="90.00" speed="1.30" pos="78.43" edge="WC" slope="0.00"/>
    </timestep>
    <timestep time="14.00">
        <vehicle id="0.0" x="-8.00" y="-27.37" angle="180.00" type="DEFAULT_VEHTYPE" speed="8.33" pos="13.77" lane="CS_1" slope="0.00"/>
        <vehicle id="0.1" x="-57.46" y="-1.60" angle="90.00" type="DEFAULT_VEHTYPE" speed="10.60" pos="42.54" lane="WC_3" slope="0.00"/>
        <vehicle id="1.0" x="1.60" y="-14.61" angle="0.00" type="DEFAULT_VEHTYPE" speed="0.01" pos="85.39" lane="SC_3" slope="0.00"/>
        <vehicle id="2.0" x="8.00" y="23.92" angle="0.00" type="DEFAULT_VEHTYPE" speed="7.83" pos="11.94" lane="CN_1" slope="0.00"/>
        <vehicle id="3.0" x="-4.80" y="14.47" angle="180.00" type="DEFAULT_VEHTYPE" speed="0.01" pos="99.00" lane="NC_2" slope="0.00"/>
        <person id="ped6" x="89.81" y="-9.92" angle="270.00" speed="1.35" pos="76.21" edge="CE" slope="0.00"/>
        <person id="ped2" x="9.92" y="15.99" angle="180.00" speed="1.28" pos="2.77" edge="CN" slope="0.00"/>
        <person id="ped1" x="9.92" y="65.29" angle="180.00" speed="1.12" pos="59.82" edge="CN" slope="0.00"/>
        <person id="ped3" x="80.18" y="11.20" angle="270.00" speed="1.19" pos="19.82" edge="EC" slope="0.00"/>
        <person id="ped4" x="11.20" y="-73.69" angle="0.00" speed="1.26" pos="26.31" edge="SC" slope="0.00"/>
        <person id="ped0" x="-28.34" y="-11.20" angle="90.00" speed="0.93" pos="71.66" edge="WC" slope="0.00"/>
        <person id="ped5" x="-20.46" y="-11.20" angle="90.00" speed="1.11" pos="79.54" edge="WC" slope="0.00"/>
    </timestep>
    <timestep time="15.00">
        <vehicle id="0.0" x="-8.00" y="-37.90" angle="180.00" type="DEFAULT_VEHTYPE" speed="10.54" pos="24.30" lane="CS_1" slope="0.00"/>
        <vehicle id="0.1" x="-45.34" y="-1.60" angle="90.00" type="DEFAULT_VEHTYPE" speed="12.13" pos="54.66" lane="WC_3" slope="0.00"/>
        <vehicle id="0.2" x="-94.90" y="-8.00" angle="90.00" type="DEFAULT_VEHTYPE" speed="0.00" pos="5.10" lane="WC_1" slope="0.00"/>
        <vehicle id="1.0" x="1.60" y="-14.60" angle="0.00" type="DEFAULT_VEHTYPE" speed="0.01" pos="85.40" lane="SC_3" slope="0.00"/>
        <vehicle id="2.0" x="8.00" y="31.98" angle="0.00" type="DEFAULT_VEHTYPE" speed="9.33" pos="21.27" lane="CN_1" slope="0.00"/>
        <vehicle id="3.0" x="-4.80" y="14.47" angle="180.00" type="DEFAULT_VEHTYPE" speed="0.00" pos="99.00" lane="NC_2" slope="0.00"/>
        <person id="ped6" x="88.42" y="-9.92" angle="270.00" speed="1.39" pos="74.82" edge="CE" slope="0.00"/>
        <person id="ped2" x="9.92" y="14.77" angle="180.00" speed="1.41" pos="1.36" edge="CN" slope="0.00"/>
        <person id="ped1" x="9.92" y="64.25" angle="180.00" speed="1.20" pos="58.62" edge="CN" slope="0.00"/>
        <person id="ped3" x="78.88" y="11.20" angle="270.00" speed="1.31" pos="21.12" edge="EC" slope="0.00"/>
        <person id="ped4" x="11.20" y="-72.50" angle="0.00" speed="1.19" pos="27.50" edge="SC" slope="0.00"/>
        <person id="ped0" x="-27.34" y="-11.20" angle="90.00" speed="1.01" pos="72.66" edge="WC" slope="0.00"/>
        <person id="ped5" x="-19.14" y="-11.20" angle="90.00" speed="1.32" pos="80.86" edge="WC" slope="0.00"/>
    </timestep>
    <timestep time="16.00">
        <vehicle id="0.0" x="-8.00" y="-49.77" angle="180.00" type="DEFAULT_VEHTYPE" speed="11.87" pos="36.17" lane="CS_1" slope="0.00"/>
        <vehicle id="0.1" x="-32.26" y="-1.60" angle="90.00" type="DEFAULT_VEHTYPE" speed="13.08" pos="67.74" lane="WC_3" slope="0.00"/>
        <vehicle id="0.2" x="-92.48" y="-8.00" angle="90.00" type="DEFAULT_VEHTYPE" speed="2.42" pos="7.52" lane="WC_1" slope="0.00"/>
        <vehicle id="1.0" x="1.60" y="-14.60" angle="0.00" type="DEFAULT_VEHTYPE" speed="0.00" pos="85.40" lane="SC_3" slope="0.00"/>
        <vehicle id="2.0" x="8.00" y="42.27" angle="0.00" type="DEFAULT_VEHTYPE" speed="11.92" pos="33.19" lane="CN_1" slope="0.00"/>
        <vehicle id="3.0" x="-4.80" y="14.46" angle="180.00" type="DEFAULT_VEHTYPE" speed="0.00" pos="99.00" lane="NC_2" slope="0.00"/>
        <person id="ped6" x="87.27" y="-9.92" angle="270.00" speed="1.15" pos="73.67" edge="CE" slope="0.00"/>
        <person id="ped2" x="9.92" y="13.62" angle="180.00" speed="1.33" pos="0.03" edge="CN" slope="0.00"/>
        <person id="ped1" x="9.92" y="63.23" angle="180.00" speed="1.18" pos="57.44" edge="CN" slope="0.00"/>
        <person id="ped3" x="77.67" y="11.20" angle="270.00" speed="1.20" pos="22.33" edge="EC" slope="0.00"/>
        <person id="ped4" x="11.20" y="-71.31" angle="0.00" speed="1.19" pos="28.69" edge="SC" slope="0.00"/>
        <person id="ped0" x="-26.22" y="-11.20" angle="90.00" speed="1.11" pos="73.78" edge="WC" slope="0.00"/>
        <person id="ped5" x="-17.79" y="-11.20" angle="90.00" speed="1.35" pos="82.21" edge="WC" slope="0.00"/>
    </timestep>
    <timestep time="17.00">
        <vehicle id="0.0" x="-8.00" y="-63.45" angle="180.00" type="DEFAULT_VEHTYPE" speed="13.68" pos="49.85" lane="CS_1" slope="0.00"/>
        <vehicle id="0.1" x="-18.32" y="-1.60" angle="90.00" type="DEFAULT_VEHTYPE" speed="13.94" pos="81.68" lane="WC_3" slope="0.00"/>
        <vehicle id="0.2" x="-88.04" y="-4.80" angle="90.00" type="DEFAULT_VEHTYPE" speed="4.44" pos="11.96" lane="WC_2" slope="0.00"/>
        <vehicle id="1.0" x="1.60" y="-14.60" angle="0.00" type="DEFAULT_VEHTYPE" speed="0.00" pos="85.40" lane="SC_3" slope="0.00"/>
        <vehicle id="2.0" x="8.00" y="54.22" angle="0.00" type="DEFAULT_VEHTYPE" speed="13.83" pos="47.02" lane="CN_1" slope="0.00"/>
        <vehicle id="2.1" x="94.90" y="8.00" angle="270.00" type="DEFAULT_VEHTYPE" speed="0.00" pos="5.10" lane="EC_1" slope="0.00"/>
        <vehicle id="3.0" x="-4.80" y="14.46" angle="180.00" type="DEFAULT_VEHTYPE" speed="0.00" pos="99.00" lane="NC_2" slope="0.00"/>
        <person id="ped2" x="9.37" y="12.57" angle="197.02" speed="1.40" pos="1.25" edge=":C_w1" slope="0.00"/>
        <person id="ped6" x="85.85" y="-9.92" angle="270.00" speed="1.42" pos="72.25" edge="CE" slope="0.00"/>
        <person id="ped1" x="9.92" y="62.29" angle="180.00" speed="1.09" pos="56.35" edge="CN" slope="0.00"/>
        <person id="ped3" x="76.34" y="11.20" angle="270.00" speed="1.33" pos="23.66" edge="EC" slope="0.00"/>
        <person id="ped4" x="11.20" y="-70.01" angle="0.00" speed="1.30" pos="29.99" edge="SC" slope="0.00"/>
        <person id="ped0" x="-25.11" y="-11.20" angle="90.00" speed="1.11" pos="74.89" edge="WC" slope="0.00"/>
        <person id="ped5" x="-16.48" y="-11.20" angle="90.00" speed="1.31" pos="83.52" edge="WC" slope="0.00"/>
    </timestep>
    <timestep time="18.00">
        <vehicle id="0.0" x="-8.00" y="-77.01" angle="180.00" type="DEFAULT_VEHTYPE" speed="13.56" pos="63.41" lane="CS_1" slope="0.00"/>
        <vehicle id="0.1" x="-8.92" y="-0.93" angle="82.31" type="DEFAULT_VEHTYPE" speed="9.44" pos="4.73" lane=":C_11_0" slope="0.00"/>
        <vehicle id="0.2" x="-81.38" y="-4.80" angle="90.00" type="DEFAULT_VEHTYPE" speed="6.66" pos="18.62" lane="WC_2" slope="0.00"/>
        <vehicle id="1.0" x="1.60" y="-14.60" angle="0.00" type="DEFAULT_VEHTYPE" speed="0.00" pos="85.40" lane="SC_3" slope="0.00"/>
        <vehicle id="1.1" x="8.00" y="-94.90" angle="0.00" type="DEFAULT_VEHTYPE" speed="0.00" pos="5.10" lane="SC_1" slope="0.00"/>
        <vehicle id="2.0" x="8.00" y="66.08" angle="0.00" type="DEFAULT_VEHTYPE" speed="13.72" pos="60.74" lane="CN_1" slope="0.00"/>
        <vehicle id="2.1" x="92.44" y="8.00" angle="270.00" type="DEFAULT_VEHTYPE" speed="2.46" pos="7.56" lane="EC_1" slope="0.00"/>
        <vehicle id="3.0" x="-4.80" y="14.46" angle="180.00" type="DEFAULT_VEHTYPE" speed="0.00" pos="99.00" lane="NC_2" slope="0.00"/>
        <vehicle id="3.1" x="-8.00" y="95.59" angle="180.00" type="DEFAULT_VEHTYPE" speed="0.00" pos="5.10" lane="NC_1" slope="0.00"/>
        <person id="ped2" x="9.56" y="12.48" angle="270.00" speed="1.30" pos="0.04" edge=":C_c0" slope="0.00"/>
        <person id="ped6" x="84.59" y="-9.92" angle="270.00" speed="1.26" pos="70.99" edge="CE" slope="0.00"/>
        <person id="ped1" x="9.92" y="61.28" angle="180.00" speed="1.17" pos="55.18" edge="CN" slope="0.00"/>
        <person id="ped3" x="75.09" y="11.20" angle="270.00" speed="1.26" pos="24.91" edge="EC" slope="0.00"/>
        <person id="ped4" x="11.20" y="-68.63" angle="0.00" speed="1.38" pos="31.37" edge="SC" slope="0.00"/>
        <person id="ped0" x="-24.11" y="-11.20" angle="90.00" speed="1.00" pos="75.89" edge="WC" slope="0.00"/>
        <person id="ped5" x="-15.17" y="-11.20" angle="90.00" speed="1.31" pos="84.83" edge="WC" slope="0.00"/>
    </timestep>
    <timestep time="19.00">
        <vehicle id="0.0" x="-8.00" y="-91.30" angle="180.00" type="DEFAULT_VEHTYPE" speed="14.29" pos="77.70" lane="CS_1" slope="0.00"/>
        <vehicle id="0.1" x="-4.42" y="0.87" angle="68.37" type="DEFAULT_VEHTYPE" speed="4.94" pos="9.67" lane=":C_11_0" slope="0.00"/>
        <vehicle id="0.2" x="-73.04" y="-4.80" angle="90.00" type="DEFAULT_VEHTYPE" speed="8.34" pos="26.96" lane="WC_2" slope="0.00"/>
        <vehicle id="1.0" x="1.60" y="-14.60" angle="0.00" type="DEFAULT_VEHTYPE" speed="0.00" pos="85.40" lane="SC_3" slope="0.00"/>
        <vehicle id="1.1" x="8.00" y="-92.60" angle="0.00" type="DEFAULT_VEHTYPE" speed="2.30" pos="7.40" lane="SC_1" slope="0.00"/>
        <vehicle id="2.0" x="8.00" y="78.05" angle="0.00" type="DEFAULT_VEHTYPE" speed="13.85" pos="74.60" lane="CN_1" slope="0.00"/>
        <vehicle id="2.1" x="88.68" y="4.80" angle="270.00" type="DEFAULT_VEHTYPE" speed="3.76" pos="11.32" lane="EC_2" slope="0.00"/>
        <vehicle id="3.0" x="-4.80" y="14.46" angle="180.00" type="DEFAULT_VEHTYPE" speed="0.00" pos="99.00" lane="NC_2" slope="0.00"/>
        <vehicle id="3.1" x="-8.00" y="94.32" angle="180.00" type="DEFAULT_VEHTYPE" speed="1.47" pos="6.57" lane="NC_1" slope="0.00"/>
        <person id="ped2" x="8.28" y="12.48" angle="270.00" speed="1.27" pos="1.32" edge=":C_c0" slope="0.00"/>
        <person id="ped6" x="83.43" y="-9.92" angle="270.00" speed="1.15" pos="69.83" edge="CE" slope="0.00"/>
        <person id="ped1" x="9.92" y="60.18" angle="180.00" speed="1.26" pos="53.92" edge="CN" slope="0.00"/>
        <person id="ped3" x="73.96" y="11.20" angle="270.00" speed="1.13" pos="26.04" edge="EC" slope="0.00"/>
        <person id="ped4" x="11.20" y="-67.33" angle="0.00" speed="1.29" pos="32.67" edge="SC" slope="0.00"/>
        <person id="ped0" x="-23.04" y="-11.20" angle="90.00" speed="1.07" pos="76.96" edge="WC" slope="0.00"/>
        <person id="ped5" x="-13.92" y="-11.20" angle="90.00" speed="1.25" pos="86.08" edge="WC" slope="0.00"/>
    </timestep>
    <timestep time="20.00">
        <vehicle id="0.1" x="-0.53" y="4.98" angle="40.72" type="DEFAULT_VEHTYPE" speed="5.83" pos="3.43" lane=":C_19_0" slope="0.00"/>
        <vehicle id="0.2" x="-62.65" y="-4.80" angle="90.00" type="DEFAULT_VEHTYPE" speed="10.40" pos="37.35" lane="WC_2" slope="0.00"/>
        <vehicle id="1.0" x="1.60" y="-14.60" angle="0.00" type="DEFAULT_VEHTYPE" speed="0.00" pos="85.40" lane="SC_3" slope="0.00"/>
        <vehicle id="1.1" x="8.00" y="-87.90" angle="0.00" type="DEFAULT_VEHTYPE" speed="4.70" pos="12.10" lane="SC_1" slope="0.00"/>
        <vehicle id="2.0" x="8.00" y="89.69" angle="0.00" type="DEFAULT_VEHTYPE" speed="13.48" pos="88.07" lane="CN_1" slope="0.00"/>
        <vehicle id="2.1" x="82.55" y="4.80" angle="270.00" type="DEFAULT_VEHTYPE" speed="6.13" pos="17.45" lane="EC_2" slope="0.00"/>
        <vehicle id="3.0" x="-4.80" y="14.46" angle="180.00" type="DEFAULT_VEHTYPE" speed="0.00" pos="99.00" lane="NC_2" slope="0.00"/>
        <vehicle id="3.1" x="-4.80" y="90.91" angle="180.00" type="DEFAULT_VEHTYPE" speed="3.95" pos="10.52" lane="NC_2" slope="0.00"/>
        <person id="ped2" x="6.95" y="12.48" angle="270.00" speed="1.33" pos="2.65" edge=":C_c0" slope="0.00"/>
        <person id="ped5" x="-12.72" y="-10.84" angle="90.00" speed="1.20" pos="0.88" edge=":C_w3" slope="0.00"/>
        <person id="ped6" x="82.14" y="-9.92" angle="270.00" speed="1.29" pos="68.54" edge="CE" slope="0.00"/>
        <person id="ped1" x="9.92" y="59.18" angle="180.00" speed="1.16" pos="52.75" edge="CN" slope="0.00"/>
        <person id="ped3" x="72.64" y="11.20" angle="270.00" speed="1.32" pos="27.36" edge="EC" slope="0.00"/>
        <person id="ped4" x="11.20" y="-66.12" angle="0.00" speed="1.21" pos="33.88" edge="SC" slope="0.00"/>
        <person id="ped0" x="-22.10" y="-11.20" angle="90.00" speed="0.94" pos="77.90" edge="WC" slope="0.00"/>
    </timestep>
    <timestep time="21.00">
        <vehicle id="0.1" x="0.15" y="6.12" angle="33.27" type="DEFAULT_VEHTYPE" speed="1.33" pos="4.76" lane=":C_19_0" slope="0.00"/>
        <vehicle id="0.2" x="-50.46" y="-4.80" angle="90.00" type="DEFAULT_VEHTYPE" speed="12.19" pos="49.54" lane="WC_2" slope="0.00"/>
        <vehicle id="1.0" x="1.60" y="-14.60" angle="0.00" type="DEFAULT_VEHTYPE" speed="0.00" pos="85.40" lane="SC_3" slope="0.00"/>
        <vehicle id="1.1" x="8.00" y="-81.51" angle="0.00" type="DEFAULT_VEHTYPE" speed="6.38" pos="18.49" lane="SC_1" slope="0.00"/>