<?xml version="1.0" encoding="UTF-8"?>

<!-- generated on 2023-12-02 16:00:14 by Eclipse SUMO GUI Version 1.15.0
<configuration xmlns:xsi="http://www.w3.org/2001/XMLSchema-instance" xsi:noNamespaceSchemaLocation="http://sumo.dlr.de/xsd/sumoConfiguration.xsd">

    <input>
        <net-file value="C:\Users\30582\Desktop\LYL\信号灯调度\test_救护车2\std_crossroad.net.xml"/>
        <route-files value="C:\Users\30582\Desktop\LYL\信号灯调度\test_救护车2\Routes.rou.xml,C:\Users\30582\Desktop\LYL\信号灯调度\test_救护车2\std_crossroad.ped.xml"/>
        <additional-files value="C:\Users\30582\Desktop\LYL\信号灯调度\test_救护车2\std_crossroad.det.xml,C:\Users\30582\Desktop\LYL\信号灯调度\test_救护车2\emissionOut.xml"/>
    </input>

    <output>
        <write-license value="true"/>
        <emission-output value="C:\Users\30582\Desktop\LYL\信号灯调度\test_救护车2\true"/>
        <fcd-output value="C:\Users\30582\Desktop\LYL\信号灯调度\test_救护车2\false"/>
        <tripinfo-output value="C:\Users\30582\Desktop\LYL\信号灯调度\test_救护车2\tripinfos.xml"/>
    </output>

    <report>
        <verbose value="true"/>
        <no-step-log value="true"/>
    </report>

    <gui_only>
        <gui-settings-file value="C:\Users\30582\Desktop\LYL\信号灯调度\test_救护车2\viewsettings.xml"/>
    </gui_only>

</configuration>
-->

<emission-export xmlns:xsi="http://www.w3.org/2001/XMLSchema-instance" xsi:noNamespaceSchemaLocation="http://sumo.dlr.de/xsd/emission_file.xsd">
    <timestep time="0.00">
        <vehicle id="0.0" eclass="HBEFA3/PC_G_EU4" CO2="2624.72" CO="164.78" HC="0.81" NOx="1.20" PMx="0.07" fuel="837.22" electricity="0.00" noise="55.94" route="!0.0" type="DEFAULT_VEHTYPE" waiting="0.00" lane="WC_1" pos="5.10" speed="0.00" angle="90.00" x="-94.90" y="-8.00"/>
        <vehicle id="1.0" eclass="HBEFA3/PC_G_EU4" CO2="2624.72" CO="164.78" HC="0.81" NOx="1.20" PMx="0.07" fuel="837.22" electricity="0.00" noise="55.94" route="!1.0" type="DEFAULT_VEHTYPE" waiting="0.00" lane="SC_1" pos="5.10" speed="0.00" angle="0.00" x="8.00" y="-94.90"/>
        <vehicle id="2.0" eclass="HBEFA3/PC_G_EU4" CO2="2624.72" CO="164.78" HC="0.81" NOx="1.20" PMx="0.07" fuel="837.22" electricity="0.00" noise="55.94" route="!2.0" type="DEFAULT_VEHTYPE" waiting="0.00" lane="EC_1" pos="5.10" speed="0.00" angle="270.00" x="94.90" y="8.00"/>
        <vehicle id="3.0" eclass="HBEFA3/PC_G_EU4" CO2="2624.72" CO="164.78" HC="0.81" NOx="1.20" PMx="0.07" fuel="837.22" electricity="0.00" noise="55.94" route="!3.0" type="DEFAULT_VEHTYPE" waiting="0.00" lane="NC_1" pos="5.10" speed="0.00" angle="180.00" x="-8.00" y="95.59"/>
    </timestep>
    <timestep time="1.00">
        <vehicle id="0.0" eclass="HBEFA3/PC_G_EU4" CO2="3068.49" CO="147.53" HC="0.74" NOx="1.37" PMx="0.07" fuel="978.75" electricity="0.00" noise="63.35" route="!0.0" type="DEFAULT_VEHTYPE" waiting="0.00" lane="WC_1" pos="6.65" speed="1.55" angle="90.00" x="-93.35" y="-8.00"/>
        <vehicle id="1.0" eclass="HBEFA3/PC_G_EU4" CO2="3644.83" CO="148.83" HC="0.76" NOx="1.63" PMx="0.08" fuel="1162.57" electricity="0.00" noise="66.49" route="!1.0" type="DEFAULT_VEHTYPE" waiting="0.00" lane="SC_2" pos="7.31" speed="2.21" angle="0.00" x="4.80" y="-92.69"/>
        <vehicle id="2.0" eclass="HBEFA3/PC_G_EU4" CO2="3579.96" CO="148.48" HC="0.76" NOx="1.60" PMx="0.08" fuel="1141.88" electricity="0.00" noise="66.19" route="!2.0" type="DEFAULT_VEHTYPE" waiting="0.00" lane="EC_1" pos="7.24" speed="2.14" angle="270.00" x="92.76" y="8.00"/>
        <vehicle id="3.0" eclass="HBEFA3/PC_G_EU4" CO2="3153.81" CO="147.38" HC="0.74" NOx="1.41" PMx="0.07" fuel="1005.97" electricity="0.00" noise="63.91" route="!3.0" type="DEFAULT_VEHTYPE" waiting="0.00" lane="NC_1" pos="6.77" speed="1.67" angle="180.00" x="-8.00" y="94.15"/>
    </timestep>
    <timestep time="2.00">
        <vehicle id="0.0" eclass="HBEFA3/PC_G_EU4" CO2="3659.19" CO="133.88" HC="0.70" NOx="1.60" PMx="0.08" fuel="1167.15" electricity="0.00" noise="64.44" route="!0.0" type="DEFAULT_VEHTYPE" waiting="0.00" lane="WC_1" pos="9.84" speed="3.19" angle="90.00" x="-90.16" y="-8.00"/>
        <vehicle id="1.0" eclass="HBEFA3/PC_G_EU4" CO2="5031.52" CO="142.12" HC="0.77" NOx="2.22" PMx="0.11" fuel="1604.84" electricity="0.00" noise="68.22" route="!1.0" type="DEFAULT_VEHTYPE" waiting="0.00" lane="SC_3" pos="11.89" speed="4.58" angle="0.00" x="1.60" y="-88.11"/>
        <vehicle id="2.0" eclass="HBEFA3/PC_G_EU4" CO2="3565.32" CO="126.65" HC="0.66" NOx="1.55" PMx="0.07" fuel="1137.21" electricity="0.00" noise="63.55" route="!2.0" type="DEFAULT_VEHTYPE" waiting="0.00" lane="EC_1" pos="10.79" speed="3.55" angle="270.00" x="89.21" y="8.00"/>
        <vehicle id="3.0" eclass="HBEFA3/PC_G_EU4" CO2="4013.73" CO="135.81" HC="0.71" NOx="1.76" PMx="0.08" fuel="1280.23" electricity="0.00" noise="65.66" route="!3.0" type="DEFAULT_VEHTYPE" waiting="0.00" lane="NC_1" pos="10.32" speed="3.56" angle="180.00" x="-8.00" y="91.08"/>
    </timestep>
    <timestep time="3.00">
        <vehicle id="0.0" eclass="HBEFA3/PC_G_EU4" CO2="4636.37" CO="127.41" HC="0.69" NOx="2.02" PMx="0.09" fuel="1478.81" electricity="0.00" noise="66.23" route="!0.0" type="DEFAULT_VEHTYPE" waiting="0.00" lane="WC_1" pos="14.91" speed="5.06" angle="90.00" x="-85.09" y="-8.00"/>
        <vehicle id="1.0" eclass="HBEFA3/PC_G_EU4" CO2="5493.89" CO="125.88" HC="0.70" NOx="2.38" PMx="0.11" fuel="1752.31" electricity="0.00" noise="67.37" route="!1.0" type="DEFAULT_VEHTYPE" waiting="0.00" lane="SC_3" pos="18.45" speed="6.56" angle="0.00" x="1.60" y="-81.55"/>
        <vehicle id="2.0" eclass="HBEFA3/PC_G_EU4" CO2="4204.17" CO="118.20" HC="0.64" NOx="1.81" PMx="0.08" fuel="1340.96" electricity="0.00" noise="64.80" route="!2.0" type="DEFAULT_VEHTYPE" waiting="0.00" lane="EC_1" pos="15.88" speed="5.09" angle="270.00" x="84.12" y="8.00"/>
        <vehicle id="3.0" eclass="HBEFA3/PC_G_EU4" CO2="4766.19" CO="125.48" HC="0.68" NOx="2.07" PMx="0.10" fuel="1520.21" electricity="0.00" noise="66.31" route="!3.0" type="DEFAULT_VEHTYPE" waiting="0.00" lane="NC_2" pos="15.73" speed="5.41" angle="180.00" x="-4.80" y="86.41"/>
    </timestep>
    <timestep time="4.00">
        <vehicle id="0.0" eclass="HBEFA3/PC_G_EU4" CO2="4705.55" CO="109.44" HC="0.61" NOx="2.01" PMx="0.09" fuel="1500.87" electricity="0.00" noise="65.40" route="!0.0" type="DEFAULT_VEHTYPE" waiting="0.00" lane="WC_1" pos="21.48" speed="6.58" angle="90.00" x="-78.52" y="-8.00"/>
        <vehicle id="1.0" eclass="HBEFA3/PC_G_EU4" CO2="5721.31" CO="111.16" HC="0.64" NOx="2.44" PMx="0.11" fuel="1824.84" electricity="0.00" noise="66.96" route="!1.0" type="DEFAULT_VEHTYPE" waiting="0.00" lane="SC_3" pos="26.69" speed="8.25" angle="0.00" x="1.60" y="-73.31"/>
        <vehicle id="2.0" eclass="HBEFA3/PC_G_EU4" CO2="4951.26" CO="112.86" HC="0.63" NOx="2.12" PMx="0.10" fuel="1579.23" electricity="0.00" noise="65.94" route="!2.0" type="DEFAULT_VEHTYPE" waiting="0.00" lane="EC_1" pos="22.59" speed="6.71" angle="270.00" x="77.41" y="8.00"/>
        <vehicle id="3.0" eclass="HBEFA3/PC_G_EU4" CO2="6197.37" CO="129.19" HC="0.74" NOx="2.69" PMx="0.13" fuel="1976.67" electricity="0.00" noise="68.32" route="!3.0" type="DEFAULT_VEHTYPE" waiting="0.00" lane="NC_2" pos="23.24" speed="7.51" angle="180.00" x="-4.80" y="79.92"/>
    </timestep>
    <timestep time="5.00">
        <vehicle id="0.0" eclass="HBEFA3/PC_G_EU4" CO2="6694.19" CO="127.19" HC="0.74" NOx="2.89" PMx="0.14" fuel="2135.13" electricity="0.00" noise="68.64" route="!0.0" type="DEFAULT_VEHTYPE" waiting="0.00" lane="WC_1" pos="30.11" speed="8.62" angle="90.00" x="-69.89" y="-8.00"/>
        <vehicle id="1.0" eclass="HBEFA3/PC_G_EU4" CO2="5417.01" CO="91.31" HC="0.54" NOx="2.27" PMx="0.10" fuel="1727.78" electricity="0.00" noise="66.18" route="!1.0" type="DEFAULT_VEHTYPE" waiting="0.00" lane="SC_3" pos="36.27" speed="9.58" angle="0.00" x="1.60" y="-63.73"/>
        <vehicle id="2.0" eclass="HBEFA3/PC_G_EU4" CO2="6479.69" CO="122.44" HC="0.71" NOx="2.79" PMx="0.13" fuel="2066.72" electricity="0.00" noise="68.23" route="!2.0" type="DEFAULT_VEHTYPE" waiting="0.00" lane="EC_1" pos="31.25" speed="8.66" angle="270.00" x="68.75" y="8.00"/>
        <vehicle id="3.0" eclass="HBEFA3/PC_G_EU4" CO2="5931.93" CO="106.41" HC="0.62" NOx="2.52" PMx="0.11" fuel="1892.01" electricity="0.00" noise="67.09" route="!3.0" type="DEFAULT_VEHTYPE" waiting="0.00" lane="NC_2" pos="32.36" speed="9.12" angle="180.00" x="-4.80" y="72.04"/>
    </timestep>
    <timestep time="6.00">
        <vehicle id="0.0" eclass="HBEFA3/PC_G_EU4" CO2="8056.53" CO="134.97" HC="0.81" NOx="3.48" PMx="0.17" fuel="2569.64" electricity="0.00" noise="69.95" route="!0.0" type="DEFAULT_VEHTYPE" waiting="0.00" lane="WC_1" pos="40.85" speed="10.74" angle="90.00" x="-59.15" y="-8.00"/>
        <vehicle id="1.0" eclass="HBEFA3/PC_G_EU4" CO2="10120.16" CO="166.47" HC="1.00" NOx="4.42" PMx="0.22" fuel="3227.83" electricity="0.00" noise="72.25" route="!1.0" type="DEFAULT_VEHTYPE" waiting="0.00" lane="SC_3" pos="48.36" speed="12.09" angle="0.00" x="1.60" y="-51.64"/>
        <vehicle id="2.0" eclass="HBEFA3/PC_G_EU4" CO2="8091.91" CO="135.38" HC="0.81" NOx="3.50" PMx="0.17" fuel="2580.92" electricity="0.00" noise="69.99" route="!2.0" type="DEFAULT_VEHTYPE" waiting="0.00" lane="EC_1" pos="42.03" speed="10.78" angle="270.00" x="57.97" y="8.00"/>
        <vehicle id="3.0" eclass="HBEFA3/PC_G_EU4" CO2="9192.60" CO="152.23" HC="0.91" NOx="4.00" PMx="0.19" fuel="2931.98" electricity="0.00" noise="71.27" route="!3.0" type="DEFAULT_VEHTYPE" waiting="0.00" lane="NC_2" pos="43.83" speed="11.47" angle="180.00" x="-4.80" y="62.13"/>
    </timestep>
    <timestep time="7.00">
        <vehicle id="0.0" eclass="HBEFA3/PC_G_EU4" CO2="6611.12" CO="93.90" HC="0.58" NOx="2.76" PMx="0.13" fuel="2108.63" electricity="0.00" noise="67.81" route="!0.0" type="DEFAULT_VEHTYPE" waiting="0.00" lane="WC_1" pos="52.98" speed="12.13" angle="90.00" x="-47.02" y="-8.00"/>
        <vehicle id="1.0" eclass="HBEFA3/PC_G_EU4" CO2="3581.47" CO="28.78" HC="0.21" NOx="1.32" PMx="0.05" fuel="1142.33" electricity="0.00" noise="64.72" route="!1.0" type="DEFAULT_VEHTYPE" waiting="0.00" lane="SC_3" pos="60.86" speed="12.50" angle="0.00" x="1.60" y="-39.14"/>
        <vehicle id="2.0" eclass="HBEFA3/PC_G_EU4" CO2="7737.84" CO="114.59" HC="0.71" NOx="3.29" PMx="0.15" fuel="2467.99" electricity="0.00" noise="69.14" route="!2.0" type="DEFAULT_VEHTYPE" waiting="0.00" lane="EC_1" pos="54.50" speed="12.47" angle="270.00" x="45.50" y="8.00"/>
        <vehicle id="3.0" eclass="HBEFA3/PC_G_EU4" CO2="10426.45" CO="161.46" HC="0.99" NOx="4.52" PMx="0.22" fuel="3325.51" electricity="0.00" noise="72.04" route="!3.0" type="DEFAULT_VEHTYPE" waiting="0.00" lane="NC_2" pos="57.56" speed="13.73" angle="180.00" x="-4.80" y="50.27"/>
    </timestep>
    <timestep time="8.00">
        <vehicle id="0.0" eclass="HBEFA3/PC_G_EU4" CO2="9860.31" CO="147.21" HC="0.91" NOx="4.25" PMx="0.21" fuel="3144.94" electricity="0.00" noise="71.33" route="!0.0" type="DEFAULT_VEHTYPE" waiting="0.00" lane="WC_1" pos="67.14" speed="14.16" angle="90.00" x="-32.86" y="-8.00"/>
        <vehicle id="0.1" eclass="HBEFA3/PC_G_EU4" CO2="2624.72" CO="164.78" HC="0.81" NOx="1.20" PMx="0.07" fuel="837.22" electricity="0.00" noise="55.94" route="!0.1" type="DEFAULT_VEHTYPE" waiting="0.00" lane="WC_1" pos="5.10" speed="0.00" angle="90.00" x="-94.90" y="-8.00"/>
        <vehicle id="1.0" eclass="HBEFA3/PC_G_EU4" CO2="0.00" CO="0.00" HC="0.00" NOx="0.00" PMx="0.00" fuel="0.00" electricity="0.00" noise="60.96" route="!1.0" type="DEFAULT_VEHTYPE" waiting="0.00" lane="SC_3" pos="72.45" speed="11.59" angle="0.00" x="1.60" y="-27.55"/>
        <vehicle id="2.0" eclass="HBEFA3/PC_G_EU4" CO2="4460.65" CO="42.65" HC="0.30" NOx="1.72" PMx="0.07" fuel="1422.74" electricity="0.00" noise="65.79" route="!2.0" type="DEFAULT_VEHTYPE" waiting="0.00" lane="EC_1" pos="67.61" speed="13.11" angle="270.00" x="32.39" y="8.00"/>
        <vehicle id="3.0" eclass="HBEFA3/PC_G_EU4" CO2="4351.36" CO="33.20" HC="0.25" NOx="1.64" PMx="0.06" fuel="1387.88" electricity="0.00" noise="66.19" route="!3.0" type="DEFAULT_VEHTYPE" waiting="0.00" lane="NC_2" pos="71.83" speed="14.27" angle="180.00" x="-4.80" y="37.94"/>
    </timestep>
    <timestep time="9.00">
        <vehicle id="0.0" eclass="HBEFA3/PC_G_EU4" CO2="0.00" CO="0.00" HC="0.00" NOx="0.00" PMx="0.00" fuel="0.00" electricity="0.00" noise="59.25" route="!0.0" type="DEFAULT_VEHTYPE" waiting="0.00" lane="WC_1" pos="78.65" speed="11.51" angle="90.00" x="-21.35" y="-8.00"/>
        <vehicle id="0.1" eclass="HBEFA3/PC_G_EU4" CO2="2944.29" CO="148.11" HC="0.74" NOx="1.32" PMx="0.07" fuel="939.14" electricity="0.00" noise="62.44" route="!0.1" type="DEFAULT_VEHTYPE" waiting="0.00" lane="WC_2" pos="6.46" speed="1.36" angle="90.00" x="-93.54" y="-4.80"/>
        <vehicle id="1.0" eclass="HBEFA3/PC_G_EU4" CO2="0.00" CO="0.00" HC="0.00" NOx="0.00" PMx="0.00" fuel="0.00" electricity="0.00" noise="54.39" route="!1.0" type="DEFAULT_VEHTYPE" waiting="0.00" lane="SC_3" pos="80.44" speed="7.98" angle="0.00" x="1.60" y="-19.56"/>
        <vehicle id="2.0" eclass="HBEFA3/PC_G_EU4" CO2="0.00" CO="0.00" HC="0.00" NOx="0.00" PMx="0.00" fuel="0.00" electricity="0.00" noise="59.69" route="!2.0" type="DEFAULT_VEHTYPE" waiting="0.00" lane="EC_1" pos="78.98" speed="11.37" angle="270.00" x="21.02" y="8.00"/>
        <vehicle id="3.0" eclass="HBEFA3/PC_G_EU4" CO2="0.00" CO="0.00" HC="0.00" NOx="0.00" PMx="0.00" fuel="0.00" electricity="0.00" noise="62.66" route="!3.0" type="DEFAULT_VEHTYPE" waiting="0.00" lane="NC_2" pos="85.26" speed="13.44" angle="180.00" x="-4.80" y="26.33"/>
    </timestep>
    <timestep time="10.00">
        <vehicle id="0.0" eclass="HBEFA3/PC_G_EU4" CO2="0.00" CO="0.00" HC="0.00" NOx="0.00" PMx="0.00" fuel="0.00" electricity="0.00" noise="53.75" route="!0.0" type="DEFAULT_VEHTYPE" waiting="0.00" lane="WC_1" pos="86.28" speed="7.63" angle="90.00" x="-13.72" y="-8.00"/>
        <vehicle id="0.1" eclass="HBEFA3/PC_G_EU4" CO2="3720.22" CO="136.36" HC="0.71" NOx="1.64" PMx="0.08" fuel="1186.61" electricity="0.00" noise="64.88" route="!0.1" type="DEFAULT_VEHTYPE" waiting="0.00" lane="WC_3" pos="9.57" speed="3.11" angle="90.00" x="-90.43" y="-1.60"/>
        <vehicle id="1.0" eclass="HBEFA3/PC_G_EU4" CO2="0.00" CO="0.00" HC="0.00" NOx="0.00" PMx="0.00" fuel="0.00" electricity="0.00" noise="46.15" route="!1.0" type="DEFAULT_VEHTYPE" waiting="0.00" lane="SC_3" pos="84.32" speed="3.88" angle="0.00" x="1.60" y="-15.68"/>
        <vehicle id="2.0" eclass="HBEFA3/PC_G_EU4" CO2="0.00" CO="0.00" HC="0.00" NOx="0.00" PMx="0.00" fuel="0.00" electricity="0.00" noise="52.32" route="!2.0" type="DEFAULT_VEHTYPE" waiting="0.00" lane="EC_1" pos="85.84" speed="6.87" angle="270.00" x="14.16" y="8.00"/>
        <vehicle id="3.0" eclass="HBEFA3/PC_G_EU4" CO2="0.00" CO="0.00" HC="0.00" NOx="0.00" PMx="0.00" fuel="0.00" electricity="0.00" noise="55.61" route="!3.0" type="DEFAULT_VEHTYPE" waiting="0.00" lane="NC_2" pos="94.20" speed="8.94" angle="180.00" x="-4.80" y="18.61"/>
    </timestep>
    <timestep time="11.00">
        <vehicle id="0.0" eclass="HBEFA3/PC_G_EU4" CO2="0.00" CO="0.00" HC="0.00" NOx="0.00" PMx="0.00" fuel="0.00" electricity="0.00" noise="47.71" route="!0.0" type="DEFAULT_VEHTYPE" waiting="0.00" lane=":C_9_0" pos="4.09" speed="4.22" angle="104.00" x="-9.76" y="-9.18"/>
        <vehicle id="0.1" eclass="HBEFA3/PC_G_EU4" CO2="5296.24" CO="137.03" HC="0.75" NOx="2.32" PMx="0.11" fuel="1689.27" electricity="0.00" noise="68.00" route="!0.1" type="DEFAULT_VEHTYPE" waiting="0.00" lane="WC_3" pos="14.93" speed="5.36" angle="90.00" x="-85.07" y="-1.60"/>
        <vehicle id="1.0" eclass="HBEFA3/PC_G_EU4" CO2="0.00" CO="0.00" HC="0.00" NOx="0.00" PMx="0.00" fuel="0.00" electricity="0.00" noise="43.09" route="!1.0" type="DEFAULT_VEHTYPE" waiting="0.00" lane="SC_3" pos="85.17" speed="0.85" angle="0.00" x="1.60" y="-14.83"/>
        <vehicle id="2.0" eclass="HBEFA3/PC_G_EU4" CO2="0.00" CO="0.00" HC="0.00" NOx="0.00" PMx="0.00" fuel="0.00" electricity="0.00" noise="46.47" route="!2.0" type="DEFAULT_VEHTYPE" waiting="0.00" lane=":C_3_0" pos="3.00" speed="3.55" angle="277.19" x="10.70" y="8.62"/>
        <vehicle id="3.0" eclass="HBEFA3/PC_G_EU4" CO2="0.00" CO="0.00" HC="0.00" NOx="0.00" PMx="0.00" fuel="0.00" electricity="0.00" noise="47.26" route="!3.0" type="DEFAULT_VEHTYPE" waiting="0.00" lane="NC_2" pos="98.64" speed="4.44" angle="180.00" x="-4.80" y="14.78"/>
    </timestep>
    <timestep time="12.00">
        <vehicle id="0.0" eclass="HBEFA3/PC_G_EU4" CO2="0.00" CO="0.00" HC="0.00" NOx="0.00" PMx="0.00" fuel="0.00" electricity="0.00" noise="57.00" route="!0.0" type="DEFAULT_VEHTYPE" waiting="0.00" lane=":C_18_0" pos="3.37" speed="4.03" angle="148.44" x="-8.13" y="-12.70"/>
        <vehicle id="0.1" eclass="HBEFA3/PC_G_EU4" CO2="7147.67" CO="145.03" HC="0.83" NOx="3.13" PMx="0.15" fuel="2279.77" electricity="0.00" noise="70.09" route="!0.1" type="DEFAULT_VEHTYPE" waiting="0.00" lane="WC_3" pos="22.77" speed="7.84" angle="90.00" x="-77.23" y="-1.60"/>
        <vehicle id="1.0" eclass="HBEFA3/PC_G_EU4" CO2="2573.67" CO="160.81" HC="0.79" NOx="1.18" PMx="0.06" fuel="820.94" electricity="0.00" noise="52.98" route="!1.0" type="DEFAULT_VEHTYPE" waiting="0.00" lane="SC_3" pos="85.34" speed="0.17" angle="0.00" x="1.60" y="-14.66"/>
        <vehicle id="2.0" eclass="HBEFA3/PC_G_EU4" CO2="2751.92" CO="102.66" HC="0.53" NOx="1.15" PMx="0.05" fuel="877.77" electricity="0.00" noise="59.87" route="!2.0" type="DEFAULT_VEHTYPE" waiting="0.00" lane=":C_14_0" pos="2.30" speed="4.05" angle="315.45" x="8.28" y="11.64"/>
        <vehicle id="3.0" eclass="HBEFA3/PC_G_EU4" CO2="2314.90" CO="153.93" HC="0.75" NOx="1.05" PMx="0.06" fuel="738.40" electricity="0.00" noise="37.67" route="!3.0" type="DEFAULT_VEHTYPE" waiting="0.00" lane="NC_2" pos="98.89" speed="0.25" angle="180.00" x="-4.80" y="14.56"/>
    </timestep>
    <timestep time="13.00">
        <vehicle id="0.0" eclass="HBEFA3/PC_G_EU4" CO2="5958.57" CO="138.05" HC="0.77" NOx="2.61" PMx="0.12" fuel="1900.51" electricity="0.00" noise="68.75" route="!0.0" type="DEFAULT_VEHTYPE" waiting="0.00" lane="CS_1" pos="5.44" speed="6.35" angle="180.00" x="-8.00" y="-19.04"/>
        <vehicle id="0.1" eclass="HBEFA3/PC_G_EU4" CO2="5288.27" CO="92.64" HC="0.55" NOx="2.22" PMx="0.10" fuel="1686.71" electricity="0.00" noise="65.99" route="!0.1" type="DEFAULT_VEHTYPE" waiting="0.00" lane="WC_3" pos="31.94" speed="9.17" angle="90.00" x="-68.06" y="-1.60"/>
        <vehicle id="1.0" eclass="HBEFA3/PC_G_EU4" CO2="2617.44" CO="163.83" HC="0.81" NOx="1.20" PMx="0.07" fuel="834.90" electricity="0.00" noise="55.43" route="!1.0" type="DEFAULT_VEHTYPE" waiting="1.00" lane="SC_3" pos="85.38" speed="0.05" angle="0.00" x="1.60" y="-14.62"/>
        <vehicle id="2.0" eclass="HBEFA3/PC_G_EU4" CO2="5379.55" CO="129.25" HC="0.72" NOx="2.34" PMx="0.11" fuel="1715.84" electricity="0.00" noise="67.46" route="!2.0" type="DEFAULT_VEHTYPE" waiting="0.00" lane="CN_1" pos="4.11" speed="6.10" angle="358.38" x="8.00" y="17.15"/>
        <vehicle id="3.0" eclass="HBEFA3/PC_G_EU4" CO2="2608.19" CO="162.72" HC="0.80" NOx="1.19" PMx="0.06" fuel="831.95" electricity="0.00" noise="55.29" route="!3.0" type="DEFAULT_VEHTYPE" waiting="1.00" lane="NC_2" pos="98.99" speed="0.10" angle="180.00" x="-4.80" y="14.47"/>
    </timestep>
    <timestep time="14.00">
        <vehicle id="0.0" eclass="HBEFA3/PC_G_EU4" CO2="6390.52" CO="124.07" HC="0.72" NOx="2.76" PMx="0.13" fuel="2038.28" electricity="0.00" noise="68.22" route="!0.0" type="DEFAULT_VEHTYPE" waiting="0.00" lane="CS_1" pos="13.77" speed="8.33" angle="180.00" x="-8.00" y="-27.37"/>
        <vehicle id="0.1" eclass="HBEFA3/PC_G_EU4" CO2="6060.35" CO="95.14" HC="0.58" NOx="2.54" PMx="0.11" fuel="1932.97" electricity="0.00" noise="67.09" route="!0.1" type="DEFAULT_VEHTYPE" waiting="0.00" lane="WC_3" pos="42.54" speed="10.60" angle="90.00" x="-57.46" y="-1.60"/>
        <vehicle id="1.0" eclass="HBEFA3/PC_G_EU4" CO2="2623.44" CO="164.59" HC="0.81" NOx="1.20" PMx="0.07" fuel="836.81" electricity="0.00" noise="55.79" route="!1.0" type="DEFAULT_VEHTYPE" waiting="2.00" lane="SC_3" pos="85.39" speed="0.01" angle="0.00" x="1.60" y="-14.61"/>
        <vehicle id="2.0" eclass="HBEFA3/PC_G_EU4" CO2="5613.81" CO="113.59" HC="0.65" NOx="2.40" PMx="0.11" fuel="1790.55" electricity="0.00" noise="66.91" route="!2.0" type="DEFAULT_VEHTYPE" waiting="0.00" lane="CN_1" pos="11.94" speed="7.83" angle="0.00" x="8.00" y="23.92"/>
        <vehicle id="3.0" eclass="HBEFA3/PC_G_EU4" CO2="2623.53" CO="164.62" HC="0.81" NOx="1.20" PMx="0.07" fuel="836.84" electricity="0.00" noise="55.55" route="!3.0" type="DEFAULT_VEHTYPE" waiting="2.00" lane="NC_2" pos="99.00" speed="0.01" angle="180.00" x="-4.80" y="14.47"/>
    </timestep>
    <timestep time="15.00">
        <vehicle id="0.0" eclass="HBEFA3/PC_G_EU4" CO2="8189.92" CO="139.50" HC="0.83" NOx="3.55" PMx="0.17" fuel="2612.19" electricity="0.00" noise="70.23" route="!0.0" type="DEFAULT_VEHTYPE" waiting="0.00" lane="CS_1" pos="24.30" speed="10.54" angle="180.00" x="-8.00" y="-37.90"/>
        <vehicle id="0.1" eclass="HBEFA3/PC_G_EU4" CO2="7042.10" CO="102.83" HC="0.64" NOx="2.97" PMx="0.14" fuel="2246.09" electricity="0.00" noise="68.32" route="!0.1" type="DEFAULT_VEHTYPE" waiting="0.00" lane="WC_3" pos="54.66" speed="12.13" angle="90.00" x="-45.34" y="-1.60"/>
        <vehicle id="0.2" eclass="HBEFA3/PC_G_EU4" CO2="2624.72" CO="164.78" HC="0.81" NOx="1.20" PMx="0.07" fuel="837.22" electricity="0.00" noise="55.94" route="!0.2" type="DEFAULT_VEHTYPE" waiting="0.00" lane="WC_1" pos="5.10" speed="0.00" angle="90.00" x="-94.90" y="-8.00"/>
        <vehicle id="1.0" eclass="HBEFA3/PC_G_EU4" CO2="2623.89" CO="164.65" HC="0.81" NOx="1.20" PMx="0.07" fuel="836.96" electricity="0.00" noise="55.93" route="!1.0" type="DEFAULT_VEHTYPE" waiting="3.00" lane="SC_3" pos="85.40" speed="0.01" angle="0.00" x="1.60" y="-14.60"/>
        <vehicle id="2.0" eclass="HBEFA3/PC_G_EU4" CO2="5755.89" CO="100.70" HC="0.59" NOx="2.43" PMx="0.11" fuel="1835.86" electricity="0.00" noise="66.75" route="!2.0" type="DEFAULT_VEHTYPE" waiting="0.00" lane="CN_1" pos="21.27" speed="9.33" angle="0.00" x="8.00" y="31.98"/>
        <vehicle id="3.0" eclass="HBEFA3/PC_G_EU4" CO2="2624.33" CO="164.72" HC="0.81" NOx="1.20" PMx="0.07" fuel="837.10" electricity="0.00" noise="55.92" route="!3.0" type="DEFAULT_VEHTYPE" waiting="3.00" lane="NC_2" pos="99.00" speed="0.00" angle="180.00" x="-4.80" y="14.47"/>
    </timestep>
    <timestep time="16.00">
        <vehicle id="0.0" eclass="HBEFA3/PC_G_EU4" CO2="6310.23" CO="89.73" HC="0.56" NOx="2.63" PMx="0.12" fuel="2012.66" electricity="0.00" noise="67.43" route="!0.0" type="DEFAULT_VEHTYPE" waiting="0.00" lane="CS_1" pos="36.17" speed="11.87" angle="180.00" x="-8.00" y="-49.77"/>
        <vehicle id="0.1" eclass="HBEFA3/PC_G_EU4" CO2="5511.28" CO="64.52" HC="0.42" NOx="2.22" PMx="0.10" fuel="1757.84" electricity="0.00" noise="66.77" route="!0.1" type="DEFAULT_VEHTYPE" waiting="0.00" lane="WC_3" pos="67.74" speed="13.08" angle="90.00" x="-32.26" y="-1.60"/>
        <vehicle id="0.2" eclass="HBEFA3/PC_G_EU4" CO2="3883.08" CO="150.36" HC="0.78" NOx="1.73" PMx="0.09" fuel="1238.56" electricity="0.00" noise="67.52" route="!0.2" type="DEFAULT_VEHTYPE" waiting="0.00" lane="WC_1" pos="7.52" speed="2.42" angle="90.00" x="-92.48" y="-8.00"/>
        <vehicle id="1.0" eclass="HBEFA3/PC_G_EU4" CO2="2624.44" CO="164.73" HC="0.81" NOx="1.20" PMx="0.07" fuel="837.13" electricity="0.00" noise="55.92" route="!1.0" type="DEFAULT_VEHTYPE" waiting="4.00" lane="SC_3" pos="85.40" speed="0.00" angle="0.00" x="1.60" y="-14.60"/>
        <vehicle id="2.0" eclass="HBEFA3/PC_G_EU4" CO2="10241.23" CO="170.26" HC="1.02" NOx="4.48" PMx="0.22" fuel="3266.44" electricity="0.00" noise="72.50" route="!2.0" type="DEFAULT_VEHTYPE" waiting="0.00" lane="CN_1" pos="33.19" speed="11.92" angle="0.00" x="8.00" y="42.27"/>
        <vehicle id="3.0" eclass="HBEFA3/PC_G_EU4" CO2="2624.64" CO="164.76" HC="0.81" NOx="1.20" PMx="0.07" fuel="837.20" electricity="0.00" noise="55.93" route="!3.0" type="DEFAULT_VEHTYPE" waiting="4.00" lane="NC_2" pos="99.00" speed="0.00" angle="180.00" x="-4.80" y="14.46"/>
    </timestep>
    <timestep time="17.00">
        <vehicle id="0.0" eclass="HBEFA3/PC_G_EU4" CO2="8771.03" CO="127.72" HC="0.79" NOx="3.74" PMx="0.18" fuel="2797.52" electricity="0.00" noise="70.21" route="!0.0" type="DEFAULT_VEHTYPE" waiting="0.00" lane="CS_1" pos="49.85" speed="13.68" angle="180.00" x="-8.00" y="-63.45"/>
        <vehicle id="0.1" eclass="HBEFA3/PC_G_EU4" CO2="5499.64" CO="58.73" HC="0.40" NOx="2.19" PMx="0.09" fuel="1754.12" electricity="0.00" noise="67.01" route="!0.1" type="DEFAULT_VEHTYPE" waiting="0.00" lane="WC_3" pos="81.68" speed="13.94" angle="90.00" x="-18.32" y="-1.60"/>
        <vehicle id="0.2" eclass="HBEFA3/PC_G_EU4" CO2="4543.93" CO="134.03" HC="0.72" NOx="1.99" PMx="0.09" fuel="1449.33" electricity="0.00" noise="66.61" route="!0.2" type="DEFAULT_VEHTYPE" waiting="0.00" lane="WC_2" pos="11.96" speed="4.44" angle="90.00" x="-88.04" y="-4.80"/>
        <vehicle id="1.0" eclass="HBEFA3/PC_G_EU4" CO2="2624.71" CO="164.78" HC="0.81" NOx="1.20" PMx="0.07" fuel="837.22" electricity="0.00" noise="55.93" route="!1.0" type="DEFAULT_VEHTYPE" waiting="5.00" lane="SC_3" pos="85.40" speed="0.00" angle="0.00" x="1.60" y="-14.60"/>
        <vehicle id="2.0" eclass="HBEFA3/PC_G_EU4" CO2="9222.87" CO="136.08" HC="0.84" NOx="3.95" PMx="0.19" fuel="2941.64" electricity="0.00" noise="70.69" route="!2.0" type="DEFAULT_VEHTYPE" waiting="0.00" lane="CN_1" pos="47.02" speed="13.83" angle="0.00" x="8.00" y="54.22"/>
        <vehicle id="2.1" eclass="HBEFA3/PC_G_EU4" CO2="2624.72" CO="164.78" HC="0.81" NOx="1.20" PMx="0.07" fuel="837.22" electricity="0.00" noise="55.94" route="!2.1" type="DEFAULT_VEHTYPE" waiting="0.00" lane="EC_1" pos="5.10" speed="0.00" angle="270.00" x="94.90" y="8.00"/>
        <vehicle id="3.0" eclass="HBEFA3/PC_G_EU4" CO2="2624.72" CO="164.78" HC="0.81" NOx="1.20" PMx="0.07" fuel="837.22" electricity="0.00" noise="55.94" route="!3.0" type="DEFAULT_VEHTYPE" waiting="5.00" lane="NC_2" pos="99.00" speed="0.00" angle="180.00" x="-4.80" y="14.46"/>
    </timestep>
    <timestep time="18.00">
        <vehicle id="0.0" eclass="HBEFA3/PC_G_EU4" CO2="1908.75" CO="0.00" HC="0.00" NOx="0.51" PMx="0.00" fuel="608.82" electricity="0.00" noise="64.08" route="!0.0" type="DEFAULT_VEHTYPE" waiting="0.00" lane="CS_1" pos="63.41" speed="13.56" angle="180.00" x="-8.00" y="-77.01"/>
        <vehicle id="0.1" eclass="HBEFA3/PC_G_EU4" CO2="0.00" CO="0.00" HC="0.00" NOx="0.00" PMx="0.00" fuel="0.00" electricity="0.00" noise="56.31" route="!0.1" type="DEFAULT_VEHTYPE" waiting="0.00" lane=":C_11_0" pos="4.73" speed="9.44" angle="82.31" x="-8.92" y="-0.93"/>
        <vehicle id="0.2" eclass="HBEFA3/PC_G_EU4" CO2="5954.06" CO="134.17" HC="0.75" NOx="2.60" PMx="0.12" fuel="1899.07" electricity="0.00" noise="68.44" route="!0.2" type="DEFAULT_VEHTYPE" waiting="0.00" lane="WC_2" pos="18.62" speed="6.66" angle="90.00" x="-81.38" y="-4.80"/>
        <vehicle id="1.0" eclass="HBEFA3/PC_G_EU4" CO2="2624.72" CO="164.78" HC="0.81" NOx="1.20" PMx="0.07" fuel="837.22" electricity="0.00" noise="55.94" route="!1.0" type="DEFAULT_VEHTYPE" waiting="6.00" lane="SC_3" pos="85.40" speed="0.00" angle="0.00" x="1.60" y="-14.60"/>
        <vehicle id="1.1" eclass="HBEFA3/PC_G_EU4" CO2="2624.72" CO="164.78" HC="0.81" NOx="1.20" PMx="0.07" fuel="837.22" electricity="0.00" noise="55.94" route="!1.1" type="DEFAULT_VEHTYPE" waiting="0.00" lane="SC_1" pos="5.10" speed="0.00" angle="0.00" x="8.00" y="-94.90"/>
        <vehicle id="2.0" eclass="HBEFA3/PC_G_EU4" CO2="1939.87" CO="0.00" HC="0.00" NOx="0.52" PMx="0.00" fuel="618.74" electricity="0.00" noise="64.21" route="!2.0" type="DEFAULT_VEHTYPE" waiting="0.00" lane="CN_1" pos="60.74" speed="13.72" angle="0.00" x="8.00" y="66.08"/>
        <vehicle id="2.1" eclass="HBEFA3/PC_G_EU4" CO2="3925.21" CO="150.67" HC="0.78" NOx="1.75" PMx="0.09" fuel="1252.00" electricity="0.00" noise="67.69" route="!2.1" type="DEFAULT_VEHTYPE" waiting="0.00" lane="EC_1" pos="7.56" speed="2.46" angle="270.00" x="92.44" y="8.00"/>
        <vehicle id="3.0" eclass="HBEFA3/PC_G_EU4" CO2="2624.72" CO="164.78" HC="0.81" NOx="1.20" PMx="0.07" fuel="837.22" electricity="0.00" noise="55.94" route="!3.0" type="DEFAULT_VEHTYPE" waiting="6.00" lane="NC_2" pos="99.00" speed="0.00" angle="180.00" x="-4.80" y="14.46"/>
        <vehicle id="3.1" eclass="HBEFA3/PC_G_EU4" CO2="2624.72" CO="164.78" HC="0.81" NOx="1.20" PMx="0.07" fuel="837.22" electricity="0.00" noise="55.94" route="!3.1" type="DEFAULT_VEHTYPE" waiting="0.00" lane="NC_1" pos="5.10" speed="0.00" angle="180.00" x="-8.00" y="95.59"/>
    </timestep>
    <timestep time="19.00">
        <vehicle id="0.0" eclass="HBEFA3/PC_G_EU4" CO2="5067.66" CO="47.82" HC="0.34" NOx="1.98" PMx="0.08" fuel="1616.34" electricity="0.00" noise="66.77" route="!0.0" type="DEFAULT_VEHTYPE" waiting="0.00" lane="CS_1" pos="77.70" speed="14.29" angle="180.00" x="-8.00" y="-91.30"/>
        <vehicle id="0.1" eclass="HBEFA3/PC_G_EU4" CO2="0.00" CO="0.00" HC="0.00" NOx="0.00" PMx="0.00" fuel="0.00" electricity="0.00" noise="48.46" route="!0.1" type="DEFAULT_VEHTYPE" waiting="0.00" lane=":C_11_0" pos="9.67" speed="4.94" angle="68.37" x="-4.42" y="0.87"/>
        <vehicle id="0.2" eclass="HBEFA3/PC_G_EU4" CO2="5741.05" CO="110.61" HC="0.64" NOx="2.45" PMx="0.11" fuel="1831.13" electricity="0.00" noise="66.97" route="!0.2" type="DEFAULT_VEHTYPE" waiting="0.00" lane="WC_2" pos="26.96" speed="8.34" angle="90.00" x="-73.04" y="-4.80"/>
        <vehicle id="1.0" eclass="HBEFA3/PC_G_EU4" CO2="2624.72" CO="164.78" HC="0.81" NOx="1.20" PMx="0.07" fuel="837.22" electricity="0.00" noise="55.94" route="!1.0" type="DEFAULT_VEHTYPE" waiting="7.00" lane="SC_3" pos="85.40" speed="0.00" angle="0.00" x="1.60" y="-14.60"/>